16
Lattice="5.0686484 -0.0 -0.0 2.5343242 7.16420022 -5e-08 2.5343242 5e-08 7.16420022" Properties=species:S:1:pos:R:3:forces:R:3 energy=-124.28717929 stress="-0.00013286713040020913 -0.0 -0.0 -0.0 -9.537319919429449e-05 -0.0 -0.0 -0.0 -9.537319919429449e-05" pbc="T T T"
Ti       6.47749215       6.96442202       5.79756787      -0.00314819      -0.00107922       0.00210885
Ti       1.40884375       0.19977825       1.36663230      -0.00314819       0.00107922      -0.00210885
Ti       6.19412885       5.79756792       0.19977820       0.00314819       0.00210885       0.00107922
Ti       6.19412885       1.36663235       6.96442197       0.00314819      -0.00210885      -0.00107922
Ti       5.17392002       2.37552503       4.39376658       0.00067134       0.00057426      -0.00005100
Ti       5.17392002       4.78867524       2.77043359       0.00067134      -0.00057426       0.00005100
Ti       7.49770098       4.39376663       4.78867519      -0.00067134      -0.00005100      -0.00057426
Ti       2.42905258       2.77043364       2.37552498      -0.00067134       0.00005100       0.00057426
Ti       8.83714890       6.92868498       4.28136104      -0.00060028       0.00137784      -0.00084267
Ti       3.76849543       0.23551529       2.88283913      -0.00060028      -0.00137784       0.00084267
Ti       3.83447210       4.28136109       0.23551524       0.00060028      -0.00084267      -0.00137784
Ti       3.83447210       2.88283918       6.92868493       0.00060028       0.00084267       0.00137784
Si       2.67513878       1.81596388       4.81100094       0.00378037      -0.00100769      -0.00004633
Si       7.74378718       5.34823639       2.35319923       0.00378037       0.00100769       0.00004633
Si       4.92782875       4.81100099       5.34823634      -0.00378037      -0.00004633       0.00100769
Si       4.92783382       2.35319928       1.81596383      -0.00378037       0.00004633      -0.00100769
16
Lattice="5.07563523 -0.0 -0.0 2.53781762 7.17246414 -4e-08 2.53781761 4e-08 7.17246414" Properties=species:S:1:pos:R:3:forces:R:3 energy=-124.28952932 stress="0.0029927860684958517 0.0 0.0 0.0 0.0029643878947805957 -0.0 0.0 -0.0 0.0029643878947805957" pbc="T T T"
Ti       6.48740117       6.97352785       5.80369034      -0.00061295      -0.00389803      -0.01261519
Ti       1.41176594       0.19893633       1.36877376      -0.00061295       0.00389803       0.01261519
Ti       6.20168691       5.80369038       0.19893629       0.00061295      -0.01261519       0.00389803
Ti       6.20168690       1.36877380       6.97352781       0.00061295       0.01261519      -0.00389803
Ti       5.18013238       2.37744474       4.39894956       0.00469433       0.01013804      -0.00474288
Ti       5.18013238       4.79501944       2.77351454       0.00469433      -0.01013804       0.00474288
Ti       7.50895569       4.39894960       4.79501940      -0.00469433      -0.00474288      -0.01013804
Ti       2.43332046       2.77351458       2.37744470      -0.00469433       0.00474288       0.01013804
Ti       8.84932653       6.93635331       4.28659984       0.00696751      -0.00184174      -0.00321712
Ti       3.77368617       0.23611087       2.88586426       0.00696751       0.00184174       0.00321712
Ti       3.83976160       4.28659988       0.23611083      -0.00696751      -0.00321712       0.00184174
Ti       3.83976160       2.88586430       6.93635327      -0.00696751       0.00321712      -0.00184174
Si       2.67800397       1.81800623       4.81618299       0.00267967      -0.00032332      -0.00050078
Si       7.75363925       5.35445795       2.35628111       0.00267967       0.00032332       0.00050078
Si       4.93544380       4.81618303       5.35445791      -0.00267967      -0.00050078       0.00032332
Si       4.93544882       2.35628115       1.81800619      -0.00267967       0.00050078      -0.00032332
6
Lattice="4.51308748 0.0 0.0 0.0 4.98693755 0.0 0.0 -2.49346878 4.31881461" Properties=species:S:1:pos:R:3:forces:R:3 energy=-46.39853437 stress="-4.0025774416792687e-05 -0.0 -0.0 -0.0 -0.00030227369049872985 -0.0 -0.0 -0.0 -0.00030227369049872985" pbc="T T T"
Ti       0.00000000       1.55016710       0.00000000       0.00000000       0.00101039       0.00000000
Ti       0.00000000      -0.77508355       1.34248409       0.00000000      -0.00050519       0.00087502
Ti       0.00000000       1.71838522       2.97633052       0.00000000      -0.00050519      -0.00087502
Ti       2.25654374       2.49346880       1.43960486       0.00000000      -0.00000000       0.00000000
Ti       2.25654374      -0.00000003       2.87920975       0.00000000      -0.00000000       0.00000000
Si       2.25654374       0.00000000       0.00000000       0.00000000      -0.00000000       0.00000000
6
Lattice="4.5214655 0.0 0.0 0.0 4.99396414 0.0 0.0 -2.49698207 4.32489981" Properties=species:S:1:pos:R:3:forces:R:3 energy=-46.39974356 stress="0.004048181652258448 -0.0 -0.0 -0.0 0.0032841527592461545 0.0 -0.0 0.0 0.0032841527592461545" pbc="T T T"
Ti       0.00000000       1.55226319       0.00000000      -0.00000000      -0.00332178      -0.00000000
Ti       0.00000000      -0.77613159       1.34429935       0.00000000       0.00166089      -0.00287674
Ti       0.00000000       1.72085048       2.98060046       0.00000000       0.00166089       0.00287674
Ti       2.26073275       2.49698209       1.44163326      -0.00000000      -0.00000000      -0.00000000
Ti       2.26073275      -0.00000002       2.88326655      -0.00000000      -0.00000000      -0.00000000
Si       2.26073275       0.00000000       0.00000000      -0.00000000      -0.00000000      -0.00000000
9
Lattice="3.95078467 -0.0 0.0 1.97539233 6.12125794 0.0 1.97539233 -0.0 6.12125794" Properties=species:S:1:pos:R:3:forces:R:3 energy=-70.12626428 stress="-4.9812754077106554e-05 -0.0 0.0 -0.0 -6.88230739161214e-05 -0.0 0.0 -0.0 -6.88230739161214e-05" pbc="T T T"
Ti       1.97539431       0.00000000       1.96115041       0.00000000       0.00000000      -0.00269192
Ti       5.92617502       6.12125794       4.16010753      -0.00000000      -0.00000000       0.00269192
Ti       3.95078467       2.01481591       2.01481591       0.00000000       0.00206757       0.00206757
Ti       1.97539036       1.96115041       0.00000000      -0.00000000      -0.00269192      -0.00000000
Ti       1.97539233       2.01481591       4.10644203       0.00000000       0.00206757      -0.00206757
Ti       5.92617897       4.16010753       6.12125794       0.00000000       0.00269192       0.00000000
Ti       3.95078466       4.10644203       4.10644203      -0.00000000      -0.00206757      -0.00206757
Ti       5.92617700       4.10644203       2.01481591      -0.00000000      -0.00206757       0.00206757
Si       0.00000000       0.00000000       0.00000000       0.00000000      -0.00000000       0.00000000
9
Lattice="3.9587412 -0.0 0.0 1.9793706 6.13206269 0.0 1.9793706 -0.0 6.13206269" Properties=species:S:1:pos:R:3:forces:R:3 energy=-70.31131825 stress="4.941869015693479e-05 -0.0 0.0 -0.0 5.16599037368752e-05 0.0 0.0 0.0 5.16599037368752e-05" pbc="T T T"
Ti       1.97937256       0.00000000       1.96818786       0.00000000       0.00000000      -0.00437967
Ti       3.95873924       0.00000000       4.16387483      -0.00000000      -0.00000000       0.00437967
Ti       3.95874120       2.01911710       2.01911710      -0.00000000      -0.00151535      -0.00151535
Ti       1.97936860       1.96818786       0.00000000      -0.00000000      -0.00437967      -0.00000000
Ti       1.97937060       2.01911710       4.11294559      -0.00000000      -0.00151535       0.00151535
Ti       3.95874320       4.16387483       0.00000000       0.00000000       0.00437967       0.00000000
Ti       3.95874120       4.11294559       4.11294559       0.00000000       0.00151535       0.00151535
Ti       1.97937060       4.11294559       2.01911710       0.00000000       0.00151535      -0.00151535
Si       0.00000000       0.00000000       0.00000000      -0.00000000      -0.00000000      -0.00000000
9
Lattice="4.25163935 -0.0 0.0 2.12581968 5.83929485 0.0 2.12581968 -0.0 5.83929485" Properties=species:S:1:pos:R:3:forces:R:3 energy=-69.96274564 stress="0.011083151956825757 -1.8724527377649774e-11 1.2483018251766518e-11 -1.8724527377649774e-11 -0.03865704864615636 -0.0 1.2483018251766518e-11 -0.0 -0.03865704867112239" pbc="T T T"
Ti       2.12582180       0.00000000       1.88969648       0.00000000       0.00000000      -0.21514948
Ti       4.25163723       0.00000000       3.94959837      -0.00000000      -0.00000000       0.21514948
Ti       4.25163935       1.92997372       1.92997372      -0.00000000      -0.05141069      -0.05141069
Ti       2.12581755       1.88969648       0.00000000      -0.00000000      -0.21514948      -0.00000000
Ti       2.12581968       1.92997372       3.90932113      -0.00000000      -0.05141069       0.05141069
Ti       4.25164148       3.94959837       0.00000000       0.00000000       0.21514948       0.00000000
Ti       4.25163936       3.90932113       3.90932113       0.00000000       0.05141069       0.05141069
Ti       2.12581968       3.90932113       1.92997372       0.00000000       0.05141069      -0.05141069
Si       0.00000000       0.00000000       0.00000000       0.00000000      -0.00000000       0.00000000
9
Lattice="4.44811858 -0.0 0.0 2.22405929 5.54800374 0.0 2.22405929 -0.0 5.54800375" Properties=species:S:1:pos:R:3:forces:R:3 energy=-68.96170192 stress="-0.028461807448688495 -2.4966036503533036e-11 1.8724527377649774e-11 -2.4966036503533036e-11 -0.09898874894380186 -0.0 1.8724527377649774e-11 -0.0 -0.09898874899997542" pbc="T T T"
Ti       2.22406151       0.00000000       1.82599739       0.00000000       0.00000000      -0.60010527
Ti       4.44811636       0.00000000       3.72200636      -0.00000000      -0.00000000       0.60010527
Ti       4.44811858       1.84242474       1.84242475      -0.00000000      -0.02506715      -0.02506715
Ti       2.22405707       1.82599738       0.00000000      -0.00000000      -0.60010527      -0.00000000
Ti       2.22405929       1.84242474       3.70557900      -0.00000000      -0.02506715       0.02506715
Ti       4.44812080       3.72200636       0.00000000       0.00000000       0.60010527       0.00000000
Ti       4.44811858       3.70557900       3.70557900       0.00000000       0.02506715       0.02506715
Ti       2.22405929       3.70557900       1.84242475       0.00000000       0.02506715      -0.02506715
Si       0.00000000       0.00000000       0.00000000       0.00000000      -0.00000000       0.00000000
9
Lattice="5.0941611 -0.0 0.0 2.54708055 5.46223473 0.0 2.54708055 -0.0 5.46223473" Properties=species:S:1:pos:R:3:forces:R:3 energy=-67.97611899 stress="0.09468507738195052 -5.6173582132949326e-11 4.369056388118281e-11 -5.6173582132949326e-11 -0.039213167421348005 -0.0 4.369056388118281e-11 -0.0 -0.039213167440072534" pbc="T T T"
Ti       2.54708310       0.00000000       1.82539222       0.00000000       0.00000000      -0.43149877
Ti       5.09415855       0.00000000       3.63684251      -0.00000000      -0.00000000       0.43149877
Ti       5.09416110       1.83160168       1.83160168      -0.00000000      -0.27706305      -0.27706305
Ti       2.54707800       1.82539222       0.00000000      -0.00000000      -0.43149877      -0.00000000
Ti       2.54708055       1.83160168       3.63063305      -0.00000000      -0.27706305       0.27706305
Ti       5.09416365       3.63684251       0.00000000       0.00000000       0.43149877       0.00000000
Ti       5.09416110       3.63063305       3.63063305       0.00000000       0.27706305       0.27706305
Ti       2.54708055       3.63063305       1.83160168       0.00000000       0.27706305      -0.27706305
Si       0.00000000       0.00000000       0.00000000       0.00000000       0.00000000      -0.00000000
9
Lattice="5.17671815 -0.0 0.0 2.58835908 5.57040753 0.0 2.58835907 -0.0 5.57040753" Properties=species:S:1:pos:R:3:forces:R:3 energy=-67.83060551 stress="0.11670783084865748 -4.993207300706607e-11 3.744905475529955e-11 -4.993207300706607e-11 -0.0019217428715584467 -0.0 3.744905475529955e-11 -0.0 -0.0019217428715584467" pbc="T T T"
Ti       2.58836166       0.00000000       1.86144615       0.00000000       0.00000000      -0.36213471
Ti       5.17671556       0.00000000       3.70896138      -0.00000000      -0.00000000       0.36213471
Ti       5.17671815       1.86777675       1.86777675      -0.00000000      -0.30059655      -0.30059655
Ti       2.58835649       1.86144615       0.00000000      -0.00000000      -0.36213471      -0.00000000
Ti       2.58835907       1.86777675       3.70263078      -0.00000000      -0.30059655       0.30059655
Ti       5.17672074       3.70896138       0.00000000       0.00000000       0.36213471       0.00000000
Ti       5.17671815       3.70263078       3.70263078       0.00000000       0.30059655       0.30059655
Ti       2.58835908       3.70263078       1.86777675       0.00000000       0.30059655      -0.30059655
Si       0.00000000       0.00000000       0.00000000      -0.00000000      -0.00000000      -0.00000000
9
Lattice="6.2604697 -0.0 0.0 3.13023485 6.99042478 0.0 3.13023485 -0.0 6.99042477" Properties=species:S:1:pos:R:3:forces:R:3 energy=-53.0647518 stress="0.10654546437880465 4.993207300706607e-11 -3.744905475529955e-11 4.993207300706607e-11 0.10172562782037071 -6.241509125883259e-12 -3.744905475529955e-11 -6.241509125883259e-12 0.1017256276705745" pbc="T T T"
Ti       3.13023798       0.00000000       2.33476343      -0.00000000      -0.00000000       0.04684207
Ti       6.26046657       0.00000000       4.65566134       0.00000000       0.00000000      -0.04684207
Ti       6.26046970       2.34268526       2.34268525      -0.00000000      -0.07290632      -0.07290632
Ti       3.13023172       2.33476343       0.00000000       0.00000000       0.04684207       0.00000000
Ti       3.13023485       2.34268526       4.64773952      -0.00000000      -0.07290632       0.07290632
Ti       6.26047283       4.65566135       0.00000000      -0.00000000      -0.04684207      -0.00000000
Ti       6.26046970       4.64773952       4.64773952       0.00000000       0.07290632       0.07290632
Ti       3.13023485       4.64773952       2.34268525       0.00000000       0.07290632      -0.07290632
Si       0.00000000       0.00000000       0.00000000       0.00000000       0.00000000      -0.00000000
9
Lattice="6.55654007 -0.0 0.0 3.27827004 7.37835967 0.0 3.27827003 -0.0 7.37835966" Properties=species:S:1:pos:R:3:forces:R:3 energy=-48.25707019 stress="0.08286118907646464 4.993207300706607e-11 -3.1207545629416294e-11 4.993207300706607e-11 0.08200378083434832 -6.241509125883259e-12 -3.1207545629416294e-11 -6.241509125883259e-12 0.08200378068455211" pbc="T T T"
Ti       3.27827331       0.00000000       2.46672715      -0.00000000      -0.00000000       0.27307460
Ti       6.55653679       0.00000000       4.91163251       0.00000000       0.00000000      -0.27307460
Ti       6.55654007       2.47513354       2.47513354       0.00000000       0.08780539       0.08780539
Ti       3.27826676       2.46672715       0.00000000       0.00000000       0.27307460       0.00000000
Ti       3.27827003       2.47513354       4.90322612       0.00000000       0.08780539      -0.08780539
Ti       6.55654335       4.91163252       0.00000000      -0.00000000      -0.27307460      -0.00000000
Ti       6.55654007       4.90322613       4.90322612      -0.00000000      -0.08780539      -0.08780539
Ti       3.27827004       4.90322613       2.47513354      -0.00000000      -0.08780539       0.08780539
Si       0.00000000       0.00000000       0.00000000      -0.00000000       0.00000000       0.00000000
9
Lattice="7.47572331 0.0 0.0 3.73786166 8.58274646 0.0 3.73786165 -0.0 8.58274645" Properties=species:S:1:pos:R:3:forces:R:3 energy=-36.07728298 stress="0.041653797473762265 3.744905475529955e-11 -3.1207545629416294e-11 3.744905475529955e-11 0.04753849466481992 -6.241509125883259e-12 -3.1207545629416294e-11 -6.241509125883259e-12 0.04753849453374823" pbc="T T T"
Ti       3.73786539       0.00000000       2.86831095      -0.00000000      -0.00000000       0.02209299
Ti       7.47571957       0.00000000       5.71443550       0.00000000       0.00000000      -0.02209299
Ti       7.47572331       2.87806954       2.87806953       0.00000000       0.02250794       0.02250794
Ti       3.73785792       2.86831095       0.00000000       0.00000000       0.02209299      -0.00000000
Ti       3.73786165       2.87806954       5.70467692       0.00000000       0.02250794      -0.02250794
Ti       7.47572705       5.71443551       0.00000000      -0.00000000      -0.02209299      -0.00000000
Ti       7.47572331       5.70467692       5.70467692      -0.00000000      -0.02250794      -0.02250794
Ti       3.73786166       5.70467692       2.87806953      -0.00000000      -0.02250794       0.02250794
Si       0.00000000       0.00000000       0.00000000      -0.00000000      -0.00000000      -0.00000000
5
Lattice="3.80742682 -0.0 -0.0 1.90371341 4.59400237 -0.07862328 1.90371341 1.27450556 4.41437141" Properties=species:S:1:pos:R:3:forces:R:3 energy=-37.58287547 stress="0.00018959533303408444 0.0 0.0 0.0 0.00010713896194184187 -9.15392585910838e-05 0.0 -9.15392585910838e-05 0.00016340820768516361" pbc="T T T"
Ti       0.00000000       0.00000000       0.00000000      -0.00000000       0.00000000       0.00000000
Ti       5.71114023       4.12140764       3.04496231      -0.00000000      -0.00013739      -0.00010150
Ti       1.90371341       1.74710029       1.29078582       0.00000000       0.00013739       0.00010150
Si       3.80742682       2.23630015       3.11256628      -0.00000000       0.00135342      -0.00183187
Si       3.80742682       3.63220778       1.22318185       0.00000000      -0.00135342       0.00183187
5
Lattice="3.81202597 -0.0 -0.0 1.90601299 4.59814429 -0.07744891 1.90601299 1.27684495 4.41798554" Properties=species:S:1:pos:R:3:forces:R:3 energy=-37.58333358 stress="0.002603426311337173 0.0 0.0 0.0 0.002406585634781471 -0.00010523586963577793 0.0 -0.00010523586963577793 0.0024712741957394068" pbc="T T T"
Ti       0.00000000       0.00000000       0.00000000       0.00000000      -0.00000000       0.00000000
Ti       5.71803896       4.12514949       3.04772685       0.00000000       0.00319437       0.00236005
Ti       1.90601299       1.74983975       1.29280978      -0.00000000      -0.00319437      -0.00236005
Si       3.81202598       2.23859895       3.11623535      -0.00000000       0.00703124      -0.00951690
Si       3.81202598       3.63639029       1.22430128       0.00000000      -0.00703124       0.00951690
10
Lattice="6.20630265 -0.39573736 0.0 -2.84762733 5.52863629 -0.0 -1.67933766 -2.56644947 5.40998732" Properties=species:S:1:pos:R:3:forces:R:3 energy=-75.03706168 stress="8.432278829068283e-08 0.00019337401131549456 -0.0 0.00019337401131549456 0.00016907546052241084 -0.0 -0.0 -0.0 -0.00012644856838495193" pbc="T T T"
Ti       2.73656385       1.10751364       1.68349127       0.00021264      -0.00250720       0.00155072
Ti      -1.76019653       0.38462069       3.72649064      -0.00238259      -0.00080903      -0.00155072
Ti      -0.36658748       1.30538232       1.02150239       0.00021264      -0.00250720      -0.00155072
Ti      -3.18401019       3.14893884       4.38849034      -0.00238259      -0.00080903       0.00155072
Ti       0.33638286       2.37969744       4.38849034       0.00238259       0.00080903       0.00155072
Ti      -2.48103985       4.22325397       1.02150239      -0.00021264       0.00250720      -0.00155072
Ti       0.62211147       4.02538529       1.68349127      -0.00021264       0.00250720       0.00155072
Ti       1.76019653      -0.38462070       3.72649064       0.00238259       0.00080903      -0.00155072
Si       1.67933766       2.56644946       0.00000000       0.00000000       0.00000000       0.00000000
Si      -1.42381366       2.76431814       2.70499366       0.00000000       0.00000000      -0.00000000
10
Lattice="6.21550794 -0.3968943 0.0 -2.85237327 5.53660824 -0.0 -1.68156733 -2.56985697 5.41832359" Properties=species:S:1:pos:R:3:forces:R:3 energy=-75.03920991 stress="0.0029832387752689897 2.569762251270519e-05 0.0 2.569762251270519e-05 0.0030056961370435197 0.0 0.0 0.0 0.0029664237252612397" pbc="T T T"
Ti       2.74117578       1.10891053       1.68658559      -0.00042052       0.00245793      -0.00169769
Ti      -1.76299285       0.38599861       3.73173258       0.00242067       0.00059881       0.00169769
Ti      -0.36657816       1.30735762       1.02257621      -0.00042052       0.00245793       0.00169769
Ti      -3.18917942       3.15430273       4.39575280       0.00242067       0.00059881      -0.00169769
Ti       0.33680622       2.38230551       4.39575280      -0.00242067      -0.00059881      -0.00169769
Ti      -2.48579508       4.22925056       1.02257621       0.00042052      -0.00245793       0.00169769
Ti       0.62195886       4.03080347       1.68658559       0.00042052      -0.00245793      -0.00169769
Ti       1.76299280      -0.38599861       3.73173258      -0.00242067      -0.00059881       0.00169769
Si       1.68156733       2.56985697       0.00000000      -0.00000000       0.00000000       0.00000000
Si      -1.42618663       2.76830412       2.70916179      -0.00000000       0.00000000       0.00000000
10
Lattice="4.60868618 0.13490807 -1.78274346 -0.9488513 4.51196893 -1.78274345 0.10165091 0.12906618 6.96175938" Properties=species:S:1:pos:R:3:forces:R:3 energy=-69.64628309 stress="-8.865097527704482e-05 -5.0740086295484666e-05 -4.782256775270005e-06 -5.0740086295484666e-05 -0.00011311304736771754 -6.072027187079024e-06 -4.782256775270005e-06 -6.072027187079024e-06 -0.00016123894622242638" pbc="T T T"
Ti       3.27012727       1.29370638       1.69813623      -0.00000000      -0.00000000      -0.00000000
Ti       0.49135853       3.48223680       1.69813624      -0.00000000      -0.00000000      -0.00000000
Ti       0.37893887       3.67534010       5.17901593      -0.00121348       0.00095572       0.00000000
Ti       3.38254692       1.10060308      -1.78274346       0.00121348      -0.00095572      -0.00000000
Si       0.84848891       1.07732317       4.87149162       0.00009848       0.00012504       0.00217421
Si       1.49239252       1.89488461      -0.09123697      -0.00114358      -0.00145200      -0.00115605
Si       2.91299688       3.69862001      -1.47521915      -0.00009848      -0.00012504      -0.00217421
Si       2.26909327       2.88105857       3.48750944       0.00114358       0.00145200       0.00115605
Si       3.03849898       3.85796970       1.45776474      -0.00016904      -0.00021463      -0.00045325
Si       0.72298681       0.91797348       1.93850773       0.00016904       0.00021463       0.00045325
10
Lattice="4.65163764 0.06860697 -1.767366 -1.02337148 4.53818734 -1.76736599 0.09890141 0.12557516 6.89668802" Properties=species:S:1:pos:R:3:forces:R:3 energy=-69.52893998 stress="0.011749523252062175 -0.008894787531529558 -0.0005320544495115379 -0.008894787531529558 0.007461290893154443 -0.0006755473310174519 -0.0005320544495115379 -0.0006755473310174519 -0.00045238644141373807" pbc="T T T"
Ti       3.28233606       1.24878964       1.68097801       0.00000000       0.00000000       0.00000000
Ti       0.44483150       3.48357983       1.68097802       0.00000000       0.00000000      -0.00000000
Ti       0.17143682       3.59716828      -1.76736599       0.37635899      -0.29641657      -0.00000000
Ti       3.45682934       1.00962603      -1.76736600      -0.37635899       0.29641657       0.00000000
Si       0.85955891       1.09137871       4.78353945      -0.07765023      -0.09859216       0.35164797
Si       1.51136465       1.91897344      -0.10030244      -0.22865655      -0.29032427      -0.05323757
Si       2.86760866       3.64099076      -1.42158342       0.07765023       0.09859216      -0.35164797
Si       2.21580292       2.81339603       3.46225847       0.22865655       0.29032427       0.05323757
Si       3.00363895       3.81370804       1.42199549       0.06675540       0.08475906       0.17898784
Si       0.72352862       0.91866143       1.93996054      -0.06675540      -0.08475906      -0.17898784
10
Lattice="4.692528 -0.060129 -1.721654 -1.158105 4.547771 -1.721654 0.103489 0.1314 6.737468" Properties=species:S:1:pos:R:3:forces:R:3 energy=-69.21042965 stress="0.012485959144760979 -0.03846115608604442 0.0015286545928856934 -0.03846115608604442 -0.006056392574967726 0.0019409241650569465 0.0015286545928856934 0.0019409241650569465 -0.03373857183923277" pbc="T T T"
Ti       3.28161425       1.15754600       1.64708000       0.00000000       0.00000000      -0.00000000
Ti       0.35629775       3.46149600       1.64708000       0.00000000       0.00000000      -0.00000000
Ti       0.05872720       3.58940613      -1.72165400       0.30992650      -0.24409501      -0.00000000
Ti       3.47569580       0.89823587      -1.72165400      -0.30992650       0.24409501      -0.00000000
Si       0.85230888       1.08217336       4.65427866      -0.19149860      -0.24314495       0.43399464
Si       1.48944538       1.89114262      -0.09737498      -0.32687532      -0.41503223       0.07101595
Si       2.78560312       3.53686864      -1.36011866       0.19149860       0.24314495      -0.43399464
Si       2.14846662       2.72789938       3.39153498       0.32687532       0.41503223      -0.07101595
Si       2.92990798       3.72009211       1.39582488       0.01008478       0.01280461       0.02703981
Si       0.70800402       0.89894989       1.89833512      -0.01008478      -0.01280461      -0.02703981
16
Lattice="4.92376107 0.0 0.0 0.0 4.93738819 0.0 0.0 0.0 9.5903377" Properties=species:S:1:pos:R:3:forces:R:3 energy=-115.87709541 stress="-0.00019001762730003256 -0.0 -0.0 -0.0 -4.832527138071693e-05 -0.0 -0.0 -0.0 -0.00010947874767540736" pbc="T T T"
Ti       3.69282080       0.68726943       4.67747929       0.00000000       0.00031735      -0.00485404
Ti       1.23094027       4.25011876       4.91285841      -0.00000000      -0.00031735       0.00485404
Ti       1.23094027       0.68726943       0.11768956       0.00000000       0.00031735       0.00485404
Ti       3.69282080       4.25011876       9.47264814       0.00000000      -0.00031735      -0.00485404
Ti       3.69282080       1.86445139       1.71299390       0.00000000      -0.00421877       0.00063728
Ti       1.23094027       3.07293680       7.87734380      -0.00000000       0.00421877      -0.00063728
Ti       1.23094027       1.86445139       3.08217495       0.00000000      -0.00421877      -0.00063728
Ti       3.69282080       3.07293680       6.50816275       0.00000000       0.00421877       0.00063728
Si       3.69282080       3.10925390       4.01231457       0.00000000      -0.00325850       0.00187154
Si       1.23094027       1.82813429       5.57802313       0.00000000       0.00325850      -0.00187154
Si       1.23094027       3.10925390       0.78285428       0.00000000      -0.00325850      -0.00187154
Si       3.69282080       1.82813429       8.80748342       0.00000000       0.00325850       0.00187154
Si       2.46188054       4.58752580       2.39758442      -0.00000000      -0.00141105       0.00000000
Si       0.00000000       0.34986239       7.19275327      -0.00000000       0.00141105       0.00000000
Si       2.46188054       0.34986239       7.19275327       0.00000000       0.00141105       0.00000000
Si       0.00000000       4.58752580       2.39758442       0.00000000      -0.00141105       0.00000000
16
Lattice="4.829437 0.0 0.0 0.0 4.919182 0.0 0.0 0.0 9.679415" Properties=species:S:1:pos:R:3:forces:R:3 energy=-115.36528561 stress="-0.033867179276967765 -0.0 -0.0 -0.0 -0.00416138528264811 -0.0 -0.0 -0.0 0.001990761666717737" pbc="T T T"
Ti       3.62207775       0.71780212       4.68600807       0.00000000      -0.43191556       0.06947532
Ti       1.20735925       4.20137988       4.99340693      -0.00000000       0.43191556      -0.06947532
Ti       1.20735925       0.71780212       0.15369943      -0.00000000      -0.43191556      -0.06947532
Ti       3.62207775       4.20137988       9.52571557       0.00000000       0.43191556       0.06947532
Ti       3.62207775       1.93062152       1.67303849       0.00000000      -0.77870444       0.38433954
Ti       1.20735925       2.98856048       8.00637651       0.00000000       0.77870444      -0.38433954
Ti       1.20735925       1.93062152       3.16666901       0.00000000      -0.77870444      -0.38433954
Ti       3.62207775       2.98856048       6.51274599       0.00000000       0.77870444       0.38433954
Si       3.62207775       3.11842196       3.99429771       0.00000000      -0.20978710       0.63432096
Si       1.20735925       1.80076004       5.68511729       0.00000000       0.20978710      -0.63432096
Si       1.20735925       3.11842196       0.84540979       0.00000000      -0.20978710      -0.63432096
Si       3.62207775       1.80076004       8.83400521       0.00000000       0.20978710       0.63432096
Si       2.41471850       4.49700796       2.41985375       0.00000000       1.01042420      -0.00000000
Si       0.00000000       0.42217404       7.25956125       0.00000000      -1.01042420      -0.00000000
Si       2.41471850       0.42217404       7.25956125       0.00000000      -1.01042420      -0.00000000
Si       0.00000000       4.49700796       2.41985375      -0.00000000       1.01042420      -0.00000000
10