12
Lattice="6.74886 0.0 0.0 0.0 3.78014 0.0 0.0 0.0 10.9028" Properties=species:S:1:pos:R:3:forces:R:3 energy=-60.48876685 stress="0.004882764358459924 0.005451988857906571 0.0014126223729752732 0.005451988857906571 -0.002671827253266584 -0.0017170997531010786 0.0014126223729752732 -0.0017170997531010786 0.0020434938866884756" pbc="T T T"
Si       4.35374344       0.18690044       2.38763012       0.06962925       0.62111208      -0.14169117
Si       1.12083440       1.49888357       3.10754277      -0.27618079       1.73365397       0.07018202
Si       5.57599877       2.11907156       3.11212053      -0.63952664      -0.23374179       0.76557853
Si       1.93178066       3.51767630       2.04669215       1.11826723      -1.84683658       0.13413382
Si       2.14232005       3.52979770       8.74385208       0.56068998       0.32212341      -0.52922256
Si       5.72173008       2.35532544       7.88598903      -0.39483977       0.27730371      -0.45954511
Si       1.33469572       1.67294186       7.60580320      -0.54562141      -0.42482089       0.01433815
Si       4.47297285       0.51113269       8.72239602       0.87472996      -0.58352174      -0.72986573
Si       2.73154338       2.75909776      10.88470462      -0.33799223       0.37556163      -0.00506687
Si       6.11250473       2.75344747       5.47676536      -0.34574000      -0.08181597      -0.10164547
Si       0.80980118       0.90623436       5.34181432       0.00194145      -0.02519293       0.81443377
Si       4.18523473       0.87033085       0.10148980      -0.09099638      -0.13346126       0.16219836
16
Lattice="5.0686484 0.0 0.0 2.5343242 7.16420022 -5e-08 2.5343242 5e-08 7.16420022" Properties=species:S:1:pos:R:3:forces:R:3 energy=-121.72442094 stress="-0.010407521101933185 -0.005792355243185434 -0.005477542807120707 -0.005792355243185434 -0.02120628905010171 0.008024341241841695 -0.005477542807120707 0.008024341241841695 0.003570284090866195" pbc="T T T"
Ti       6.67535951       6.91765900       5.69715301      -0.98397256      -0.00510771       0.08273770
Ti       1.32263653       0.37740900       1.36022908      -0.24826581      -1.32921636      -0.34246459
Ti       6.04946831       5.90919683       0.29269408       1.13520934      -0.98429038      -0.36598600
Ti       6.13826885       1.19996999       7.14850839       0.10826139       1.14758472      -1.26035689
Ti       5.16772360       2.28187109       4.40042162       0.37625245       0.65710012       0.19456461
Ti       5.18711756       4.67586044       2.77309480      -0.07173718       0.77870435       0.03538393
Ti       7.45619524       4.34865581       4.66396939       0.58692985       0.11118923       0.69343635
Ti       2.25185471       2.71331548       2.38393274       1.19595152       0.72338933       0.64693657
Ti       8.97492822       6.99247982       4.28421396      -0.80819302      -0.77856544      -0.10409117
Ti       3.63332213       0.22706462       2.71142153       1.02686455      -0.02928884       1.07206122
Ti       4.02768165       4.20805219       0.18148657      -1.52376547       0.08393255      -0.01810100
Ti       3.94186384       3.09956462       6.92625017      -0.40249731      -1.06726757       0.57969701
Si       2.73448054       1.78915888       5.00630893      -0.45252004       0.36037244      -0.36465094
Si       7.79871100       5.42488996       2.38446574      -0.22857811      -0.43884115      -0.76125464
Si       4.92097703       4.85304195       5.37061451       0.15304645       0.08315653      -0.05909030
Si       4.81591188       2.31944888       1.84289578       0.13126178       0.67273252      -0.03513050
52
Lattice="10.10524674 0.0 0.0 0.0 10.10524674 0.0 0.0 0.0 10.10524674" Properties=species:S:1:pos:R:3:forces:R:3 energy=-278.15570647 stress="-0.010758476922096903 -0.010819203092193818 -0.001140254208732491 -0.010819203092193818 -0.010814451993032104 -0.002593842573938525 -0.001140254208732491 -0.002593842573938525 -0.012593159910126186" pbc="T T T"
Ti       3.07281960       6.03571907       9.97678450      -0.51711521       0.10381512       0.06125243
Ti       7.58903545       5.06208360       0.16283706       0.02340859       0.09557575       0.01893319
Ti       5.74582177       0.75918081       2.53772233      -0.12435643       0.05575116       0.76139897
Ti       5.02171031       9.73740848       5.89123082       1.06204571       0.86460511       0.15799885
Ti       9.06436712       2.45004324       4.99198239      -0.48405566      -0.53804896      -0.03910230
Ti       0.28264042       8.52833521       4.80901043      -0.16574999       0.29413736       1.02963017
Si       2.68847280       9.94436010       4.94455493      -0.61650277      -0.56091629       0.06012930
Si       7.66056251       9.71708410       5.09052886      -0.71593477       0.55089722       1.21491948
Si       0.03083818       4.90067179       2.65490560      -1.08947557       0.56154193      -0.64821986
Si       9.89819175       5.05798663       7.34772105       0.14818159      -0.01030602       1.01360345
Si       5.11542192       2.39468458       0.31657606       0.41796799      -0.54239136      -0.30827115
Si       5.04437132       7.64194036       0.08523553       0.55415785      -0.03953267       0.23311704
Si       6.98591037       6.91920270       7.04942083      -1.74807126      -1.26673413      -1.00431809
Si       6.84479666       3.03078642       3.43595315      -0.43478694       0.23123955       0.35036835
Si       3.35852564       6.82753245       3.07844478       0.06730384      -0.34654768      -0.30846928
Si       3.11643546       3.18841159       7.10713372       0.41136154       0.29813018      -1.00218487
Si       8.24758913       8.14424176       8.31105624       0.65492045       2.06486587       1.03261160
Si       8.22954004       1.68137310       2.18559722       1.09921312       0.40255600      -0.14507640
Si       1.97964765       8.09316984       1.77022005       0.09766653       0.36666327      -0.49859008
Si       2.00784846       1.75743964       8.36856298      -1.40324046      -0.14582138       0.64909172
Si       3.04954539       3.07590301       3.40054346      -0.16009270       0.70173709      -0.30725904
Si       2.99936971       6.78948499       6.98148346       0.70101062      -0.44070222       1.00393204
Si       6.62688631       3.27798379       7.18520635       0.64169484      -0.23016572       0.32796209
Si       6.98563480       6.76904632       3.12309674      -0.27088160      -1.00082611       0.02179386
Si       1.59059817       1.89085102       2.03213319       0.34223603      -0.38024817      -0.46015002
Si       1.76579708       8.33792043       8.11227088       0.64005116       0.42224608       0.53445713
Si       8.23867761       2.06994510       8.39115639      -0.23827371      -0.61073735       0.12254334
Si       8.32959290       7.96808366       1.85038032       1.20830917       0.16696717      -1.01197272
Si       0.05672681       6.95491414       8.79405894      -0.25873342      -0.61288199      -0.13454376
Si       9.84589023       3.16485151       1.17594827       0.00607270      -0.44150370      -0.25495141
Si       0.25199595       6.74100992       0.98813791      -0.77979873      -0.38473683       1.06464128
Si       0.09038112       3.26442700       8.86904583       0.13598706      -0.59052496       0.46326948
Si       6.97179526       8.83856194       0.19253122       0.74039469      -0.08266362      -0.65988097
Si       7.10570403       1.05156309       0.26168557      -0.19189672       0.43523100      -1.21479035
Si       3.21597477       8.94879058       9.97484176      -1.26605936       0.53466245       0.04319863
Si       3.13408548       1.21944388       0.30272672      -0.82911940      -0.64535718      -0.07629815
Si       8.94456113       0.12848235       7.08628134      -0.72901312      -0.50029704      -0.14071742
Si       8.82946924       9.81044314       3.17724317       0.54390890       0.28698509      -0.48369383
Si       1.25230119       9.91071407       3.08240766       0.13157304       0.67783205      -0.65548710
Si       1.16855264       0.15909620       6.82158127       0.21944741      -0.27734695       0.14759472
Si       7.91362568       4.89948098       6.19084613       0.23321442       0.36399153       1.42205871
Si       8.14022169       4.95072600       3.99004859       0.52969050      -0.25324349      -1.56008877
Si       1.89057768       5.25274080       3.82948461       0.92042332      -1.37000640       1.59820538
Si       1.81428640       4.94753790       6.30217725       0.28044844      -0.05917505      -1.30174062
Si       5.09646084       6.20279275       8.38852488       0.19556004      -0.65133201      -1.08927641
Si       4.95383033       3.72457123       2.14040019       0.03096270      -0.11739393       0.61055409
Si       5.22463286       6.02360763       1.83391140      -0.46482959      -0.01726170      -0.44830991
Si       4.81946804       3.70824428       8.57252596       0.07259070       1.63339268      -0.09473570
Si       6.23984273       7.75797588       4.96846051      -0.22302625       0.87486458       1.06916160
Si       6.23271419       1.88078832       5.43063327       0.10637649      -0.91753494      -1.01280933
Si       3.74637360       7.78682363       5.10256299       0.07917519       0.53909470      -0.54519241
Si       3.79636759       1.87239066       5.22981705       0.39836890       0.48427655       0.33556861
12
Lattice="6.74886 0.0 0.0 0.0 3.78014 0.0 0.0 0.0 10.9028" Properties=species:S:1:pos:R:3:forces:R:3 energy=-60.34541373 stress="0.006655063581364675 0.004150651160219451 0.0015147052007214012 0.004150651160219451 -0.0036137062636134557 -6.230335576246102e-05 0.0015147052007214012 -6.230335576246102e-05 0.002624340004350162" pbc="T T T"
Si       4.33477294       0.19495679       2.41999116      -0.03739234       0.22257177      -0.38475537
Si       1.10361158       1.48130116       3.12198691      -0.36081162       2.16600887      -0.30034154
Si       5.53326256       2.08308032       3.12232173      -0.30580786       0.20571199       0.87759042
Si       1.93065866       3.53506215       2.04294464       1.14088222      -2.23827352      -0.10054920
Si       2.13186661       3.56507185       8.72233126       0.94018454      -0.11220675      -0.17284260
Si       5.73705208       2.33842409       7.88233800      -0.28128969       0.90827366      -0.46215887
Si       1.34748569       1.67009231       7.62033729      -0.68207377      -0.06239057      -0.38303248
Si       4.49975368       0.56648758       8.72369847       0.57341361      -1.27504104      -0.72905481
Si       2.74534359       2.73624307      10.85913516      -0.50429120       0.73627129       0.15297356
Si       6.10405860       2.74666163       5.48632330      -0.15376150      -0.18304113      -0.24017525
Si       0.83254990       0.89331611       5.31800533      -0.22815328      -0.02436096       1.36043716
Si       4.19274412       0.87014290       0.09738675      -0.10359475      -0.33976255       0.37537022
12
Lattice="6.74886 0.0 0.0 0.0 3.78014 0.0 0.0 0.0 10.9028" Properties=species:S:1:pos:R:3:forces:R:3 energy=-60.45216424 stress="-0.001710790561050234 -0.0019423962218635318 -0.0005141592782627627 -0.0019423962218635318 0.0023718482161489297 -0.0010201020934782574 -0.0005141592782627627 -0.0010201020934782574 0.0017322227861583837" pbc="T T T"
Si       4.22991347       0.15219532       2.47205290       0.96047784       0.62632991      -0.15861696
Si       0.94207155       1.64366872       3.07427146      -0.23153401      -1.92031678       0.62202955
Si       5.29558094       2.08115721       3.40225581       0.09062973      -0.26809097      -0.94407459
Si       2.03565722       3.34280744       2.07219380      -0.99300030       1.51491874       0.04719577
Si       2.37862140       3.62725451       8.59110930      -0.20904405       0.14853496      -0.52868553
Si       5.76719127       2.52436313       7.76371674      -0.19579890      -1.70412414       0.12496341
Si       1.26140351       1.76411978       7.58168403       0.71518903      -0.17785827       0.68830866
Si       4.72571779       0.50789152       8.63934296      -0.32753850       1.39100357       0.78122038
Si       2.71480520       2.77874255      10.76829019       0.02215161      -0.47181337       0.45856863
Si       6.07566655       2.65409054       5.47130099       0.56585063       0.35467524       0.51236044
Si       0.87028460       0.82086417       5.46127292      -0.29098239       0.07374908      -1.16485845
Si       4.19624651       0.78368524       0.11930890      -0.11134687       0.42981968      -0.43403488
52
Lattice="10.10524674 0.0 0.0 0.0 10.10524674 0.0 0.0 0.0 10.10524674" Properties=species:S:1:pos:R:3:forces:R:3 energy=-277.89207081 stress="-0.004317370388631751 -0.0016675350584419164 0.003831245703694642 -0.0016675350584419164 -0.008952975517042322 -0.001340145488409314 0.003831245703694642 -0.001340145488409314 -0.0026307925326580824" pbc="T T T"
Ti       2.97779895       5.84707523      10.00341829      -0.01914283       0.39531702      -0.04246859
Ti       7.58435005       5.05529116       0.13156566       0.05649229       0.08779856       0.03135825
Ti       5.59574976       0.60758018       2.50858051       0.55097949       0.41644417       0.45989623
Ti       5.02955936       9.72583009       6.18745228       0.18104755       1.36528995      -0.06743181
Ti       9.29013783       2.48316683       5.00804690      -0.83184867      -0.38467863      -0.09357982
Ti       0.24506375       8.32493741       4.83590473      -0.19660600       0.63835653       0.32486440
Si       2.67170658       9.92958582       4.90280692      -0.22761244       0.37931337       0.89547065
Si       7.58896684       9.76829285       5.08509365       0.51291720       0.71949250       0.83805012
Si      10.06000484       4.94341961       2.60252081       1.08491592       0.08504209      -0.69011061
Si       9.88624452       5.07977223       7.33968344       0.34869319      -0.04467066       0.91057504
Si       5.15854263       2.36569738       0.30076812      -0.00468179       0.05288618      -0.24327903
Si       5.04064380       7.60771389       0.11870057      -0.00796144       0.24223290      -0.41059719
Si       6.99590425       6.92188454       7.05068338      -1.18101271      -0.27666749      -0.32624089
Si       6.85173280       3.01521716       3.44149174      -0.30211666       0.15122666       0.01410708
Si       3.37651622       6.91315643       3.06108549      -0.53200362      -0.56467433       0.04295801
Si       3.10004212       3.15833282       7.08894175       0.34616924       0.43794553      -0.56693642
Si       8.26038348       8.24644339       8.39794913       0.50564103       0.51755573      -0.59735437
Si       8.25138243       1.66291849       2.15506463      -0.07319088       1.67414762      -0.64864779
Si       1.95696016       8.20132791       1.75035394       0.13514050      -0.18145358      -0.33973910
Si       1.97803434       1.74552535       8.37358064      -0.74393262      -0.32283621       0.54367833
Si       2.97588795       3.18095392       3.30840817       0.84594447      -0.72154979       0.51155454
Si       3.01536985       6.85835275       7.04883261       0.63878860      -0.75329799      -0.13444375
Si       6.61304677       3.28876781       7.20616847       1.24103025      -0.99905190      -0.74632947
Si       6.99439716       6.83373172       3.17642253      -0.37964204      -0.28557414      -0.16357166
Si       1.58132954       1.85520790       2.03635051       0.32586610       0.08238822      -0.58121917
Si       1.76214444       8.42275378       8.12883287       0.36115237      -0.28346749       0.26328137
Si       8.21837173       2.07074594       8.43035585       0.29492467      -0.36406695      -0.36390061
Si       8.38917152       7.97744395       1.75473517       0.23254394       0.44047074       0.18453103
Si       0.09052411       6.97245715       8.77758709      -0.55840913      -0.50189854      -0.11553887
Si       9.88334441       3.09612220       1.11001639      -0.00155236       0.29697127       0.07395238
Si       0.23653038       6.76286110       0.97710197      -0.33374375      -0.27117108       0.95149225
Si       0.19671389       3.23247401       8.79002725      -0.85717165      -0.26632909       0.80585241
Si       6.99081333       8.89351761       0.10805449      -0.07564372      -0.72353695       0.29447163
Si       7.13593064       1.04808032       0.20912202      -0.32471186       0.76426378      -0.62768364
Si       3.14255884       8.97506058       9.91095831       0.00528823       0.30843271       0.82493842
Si       3.11931990       1.25241417       0.30728327      -0.46247805      -0.76803923      -0.14287956
Si       8.98682966       0.08421531       7.09233943      -0.91631859      -0.04748902      -0.28845926
Si       8.88650356       9.94448884       3.14219414       0.24978843      -1.90093160       0.75410254
Si       1.23919671       9.95419200       3.14496166      -0.20865201       0.05573785      -0.78020330
Si       1.22297243       0.14338274       6.82138887      -0.25014602       0.06912898      -0.29309112
Si       7.89188717       4.92403835       6.19383344       0.35724463       0.18896184       0.56658579
Si       8.22243697       4.99194793       3.92525223      -0.91255030      -0.40640024      -0.16418861
Si       1.97352154       5.17509613       3.88505528      -0.47715213       0.08997276       0.43172987
Si       1.82552586       4.91691647       6.29935253       0.37937030       0.73988635      -0.86506398
Si       5.05683362       6.16142561       8.35548840       0.17444066       0.03467813      -0.64205370
Si       4.91499375       3.79245565       2.10520645       0.27817095      -1.15299348       0.34308568
Si       5.17294745       6.01242405       1.82384687       0.31754974       0.90272697       0.08558209
Si       4.83161788       3.72152086       8.50103276      -0.38240799       1.11321582       0.73581683
Si       6.13035865       7.94390868       5.03325697       1.24867547      -0.85911463      -0.04384286
Si       6.26871069       1.72416175       5.36445421       0.08025685       0.52856231      -0.20095587
Si       3.79538951       7.94272727       5.07469040      -0.82285198      -0.94067299       0.18720398
Si       3.78470402       1.86661066       5.29607453       0.35189076       0.28097543      -0.90551844
52
Lattice="10.10524674 0.0 0.0 0.0 10.10524674 0.0 0.0 0.0 10.10524674" Properties=species:S:1:pos:R:3:forces:R:3 energy=-278.2563347 stress="-0.008327655732073957 -0.007413579939188688 0.0012659545980562596 -0.007413579939188688 -0.010289101991619825 -0.002098636746004377 0.0012659545980562596 -0.002098636746004377 -0.009684165165418947" pbc="T T T"
Ti       3.03336053       5.95354987       9.98808671      -0.27950696       0.26010820       0.03565550
Ti       7.58677683       5.05874412       0.14937788       0.05399978       0.08973226       0.01419133
Ti       5.68024862       0.69288686       2.52222896       0.23426182       0.25104750       0.63188972
Ti       5.02190675       9.72672400       6.01797345       0.69227523       1.15837878       0.02820892
Ti       9.16451112       2.46654966       4.99925968      -0.70041677      -0.49484257      -0.08170346
Ti       0.26751114       8.43892429       4.81729208      -0.20379492       0.45414226       0.70266562
Si       2.68471951       9.93943753       4.92263352      -0.42424416      -0.22906414       0.46851650
Si       7.63132369       9.73326058       5.07899928      -0.25911592       0.69223414       1.15710795
Si      10.10397206       4.91577610       2.63770394      -0.17315415       0.42484656      -0.63065791
Si       9.89155392       5.06707246       7.33575088       0.16528954       0.04839026       1.05166516
Si       5.13138285       2.38443372       0.31209620       0.33731556      -0.28347922      -0.28509315
Si       5.04029406       7.62647074       0.09968664       0.33156576       0.08360354       0.03036953
Si       7.00411871       6.92855531       7.05735962      -1.76212909      -1.08030257      -0.97559346
Si       6.85105726       3.02260279       3.43644952      -0.40665181       0.19223247       0.25912363
Si       3.36822526       6.86824407       3.07215710      -0.22179055      -0.48249595      -0.15880455
Si       3.10534606       3.17154937       7.10756036       0.51785010       0.49650949      -1.05460128
Si       8.24733943       8.17504558       8.34424419       0.73285549       1.70304908       0.61457497
Si       8.23434014       1.66433505       2.17569459       0.62537889       1.05044418      -0.35501549
Si       1.96883129       8.13847429       1.76560993       0.13749429       0.16322054      -0.48832295
Si       2.00551880       1.75524741       8.36447399      -1.32826546      -0.36900162       0.78901386
Si       3.01490532       3.12021351       3.35892177       0.33497166       0.16285710       0.24842846
Si       3.00039095       6.82445763       7.00703286       0.71841269      -0.66272817       0.44935293
Si       6.61272896       3.28804023       7.19684315       0.97168411      -0.63044376      -0.28933582
Si       6.99289178       6.80295397       3.14609527      -0.43891516      -0.80132088      -0.00472856
Si       1.58394741       1.87742580       2.03855234       0.32996865      -0.25938628      -0.56254005
Si       1.75945513       8.37263822       8.11566402       0.60626084       0.25371344       0.46826439
Si       8.22998569       2.07448185       8.40859865      -0.03071914      -0.52185021      -0.04748355
Si       8.34802133       7.96885065       1.81351598       0.92657203       0.39346939      -0.57094885
Si       0.07511533       6.96768172       8.78877925      -0.47593310      -0.65610263      -0.23885437
Si       9.86208116       3.13610219       1.14845038      -0.01886107      -0.11868799      -0.10813109
Si       0.25037770       6.75342815       0.97396622      -0.63958061      -0.38725171       1.17974329
Si       0.13847523       3.25495373       8.82977068      -0.25071143      -0.54180012       0.64680503
Si       6.97669691       8.86626133       0.15854566       0.44035458      -0.49191597      -0.32490820
Si       7.12104480       1.04452762       0.24765646      -0.28856940       0.66836862      -1.07957120
Si       3.19062879       8.95632111       9.94430816      -0.81697750       0.46752799       0.33595255
Si       3.13393108       1.23996693       0.30531619      -0.78630614      -0.77786087      -0.06409392
Si       8.97026090       0.11209770       7.09066691      -0.93181253      -0.34520416      -0.21099763
Si       8.85031637       9.87552932       3.16125516       0.45004688      -0.83407553       0.04924293
Si       1.24692611       9.92587709       3.11522950      -0.00458860       0.45848307      -0.72444337
Si       1.19142132       0.15335611       6.82207188       0.09602360      -0.13657211      -0.04912605
Si       7.90223888       4.90745220       6.18230952       0.24007610       0.31821050       1.26302216
Si       8.17632965       4.97112243       3.97148101      -0.02308669      -0.32620581      -1.22994330
Si       1.92380706       5.22625576       3.84468654       0.35603183      -0.91798516       1.10124626
Si       1.81550671       4.93126017       6.31087847       0.44927330       0.35151949      -1.23771184
Si       5.07776098       6.18804526       8.38235674       0.21478168      -0.39877225      -1.01088696
Si       4.93596699       3.75904861       2.12103511       0.13238311      -0.59832413       0.53507009
Si       5.20276793       6.01465014       1.83092125      -0.05436932       0.46635860      -0.17935145
Si       4.82614064       3.70187010       8.53874382      -0.15692602       1.49726723       0.34934451
Si       6.18886489       7.83714452       4.99144115       0.40504925       0.18523688       0.67063196
Si       6.24682293       1.81588869       5.40716221       0.15997415      -0.35900485      -0.62035169
Si       3.77067925       7.85529122       5.09205455      -0.33927495      -0.10109607      -0.18411089
Si       3.78847075       1.86568371       5.26082490       0.36070312       0.52766471      -0.25630051
72
Lattice="11.54933385 0.0 0.0 -5.77466694 10.00201653 0.0 0.0 0.0 12.71540332" Properties=species:S:1:pos:R:3:forces:R:3 energy=-372.92226814 stress="0.0058658930532311014 0.002381255181526114 -0.0035013542403327024 0.002381255181526114 0.0029075799443846187 8.915190007496083e-05 -0.0035013542403327024 8.915190007496083e-05 0.004914999337631079" pbc="T T T"
Si       5.68579346       9.97499318       4.20641169      -0.03586469       0.64017449      -2.17011722
Si       1.90793759       0.84406537       0.70556298       0.16034384       1.48742843       0.25517405
Si      -5.55447294       9.83498555       6.40387905      -0.26650110       0.33191148       1.18265625
Si       1.82979180       1.00572337       3.24240445       0.52390070       0.01584544      -0.35054935
Si       5.71742154       9.73421464       9.86162241      -0.56960730       0.72846686       1.20832769
Si       2.27838513       0.70453484       7.20867253       0.32393569       0.21044839      -0.20282689
Si      -0.07996476       0.19531068      12.19535896       0.56548699      -0.74409419       1.86312505
Si       1.68593110       1.12542030       9.57665013       1.85198474      -1.43604470      -1.10393064
Si       9.45404024       3.45740576       4.16339357       0.64722386       0.15120123      -1.30885134
Si      -0.13928497       4.41553663       0.87963800      -0.55649682       0.55085011      -1.18690960
Si      -1.78199442       3.36957935       6.46259509      -0.45568693       0.90566054       0.64973312
Si       0.01552253       4.29065165       3.18448388      -1.42843312       1.25290675       1.24996648
Si       9.47337146       3.14979484      10.49205758      -0.65815032      -0.20895791      -0.29429756
Si       0.36995957       4.10929889       7.36164722      -0.19292522       0.07726559      -1.59550455
Si       9.19699348       3.32081872       0.17769191       2.18493288      -0.65041343      -0.16916405
Si      -0.14069855       4.25305677       9.60614796      -1.34271850      -0.33204296      -0.22624652
Si      -3.77119389       7.26687239       3.66972313       0.34863391      -0.84566751      -0.61968275
Si      -1.85851448       7.44173605       0.50168649      -0.62569062       0.15239159      -0.00348608
Si      -3.31340439       6.59313496       5.81176684      -1.28678961       0.12406695       1.72278698
Si      -1.67399216       7.89115285       2.75120244      -0.87320094       0.01776492       0.45690875
Si      -3.51301823       6.61109818      10.46101991      -1.76364605      -0.33159786      -0.75040367
Si      -1.63751937       7.63004681       7.04779508       1.12833326      -0.32034419       1.13709955
Si       7.53055378       6.51620165       0.10308734       0.59731297       0.16611360      -0.91636578
Si      -1.73594158       7.94782378       9.56735110      -0.35102598      -0.82284228      -0.96726638
Si      -1.76499728       9.90122941       3.85101935      -0.46890332       2.05272831      -0.57252143
Si       5.70615772       1.07648893       0.81054516      -0.49601107      -1.43803946      -0.53077613
Si      -1.41174635       9.74146060       6.15521077      -0.40411612       1.21581298       1.42754457
Si       5.61965679       1.56737350       3.01790167       0.73775223      -1.65970916       2.14752319
Si       3.78455518       0.18256111      10.38151164       0.47400884       0.06393228      -0.47359070
Si       6.01794810       1.31441480       7.36601916      -1.31418347       0.20684776       0.11604926
Si      -1.89743834       9.67631466      12.64560160      -0.32895718       1.31447016       0.62800134
Si       5.81654717       1.52388613       9.88755052       0.00180897      -3.21842557      -1.53276639
Si       1.80164237       3.24489041       4.22746776       0.88489507       0.00135629      -2.22984310
Si       3.67370773       4.66970627       1.02392680      -1.48007361       1.22968679      -0.14650579
Si       2.35604279       2.90427384       6.36486285      -1.95327406      -0.16010405       1.18969306
Si       3.66595386       4.59213223       3.35353860      -0.42038683       0.11144271       0.60534332
Si       1.63391382       3.18904215      10.41688818       1.15642698       1.01308520       1.05821751
Si       3.70947354       4.42442112       7.29032792       0.77971251       0.35718897       0.61620869
Si       1.84918364       3.53431326       0.02705647      -0.15315945      -1.97914353       0.60395579
Si       3.59059347       4.22927517       9.65838627       0.28429789       0.92334864      -0.19172462
Si      -0.26880186       6.70973397       4.03840764       1.79050993      -2.20158440       0.97022668
Si       1.72941081       7.90429250       0.94110883       1.14762223       0.44059090      -0.16976202
Si       0.52393604       6.43554979       6.53517169      -2.44475630      -0.07429357      -0.72968047
Si       1.69853829       7.80434995       3.34003586       0.81078980       0.34603939       0.13746399
Si       0.12403851       6.45979868       9.86495347       0.12800298       2.32945558       1.33527861
Si       2.25276737       7.91245475       6.46318140      -2.88205226       2.07406616       1.60979858
Si       0.16354168       6.76548120      12.40494467      -0.12985820      -1.83840079      -0.25722177
Si       1.91148715       7.80951569       8.92456750       0.31177932      -0.57042397       1.44031171
Si       7.57898805       0.15135071       3.99076036      -1.86530422      -0.16860741       0.15620591
Si       9.77905825       1.04758491       1.02564541      -0.37719394       1.04465657      -0.73502386