
***************************************************************
*                 Welcome to use GPUMD                        *
*    (Graphics Processing Units Molecular Dynamics)           *
*                     version 5.3                             *
*              This is the nep executable                     *
***************************************************************


---------------------------------------------------------------
GPU information:
---------------------------------------------------------------

number of GPUs = 1
Device id:                   0
    Device name:             NVIDIA GeForce RTX 3090
    Compute capability:      8.6
    Amount of global memory: 23.6843 GB
    Number of SMs:           82

---------------------------------------------------------------
Started running nep.
---------------------------------------------------------------


---------------------------------------------------------------
Started reading nep.in.
---------------------------------------------------------------

Input or default parameters:
    (default) model_type = potential.
    (default) calculation mode = train.
    (input)   use NEP version 4.
    (input)   number of atom types = 2.
        type 0 (Si with Z = 14) has cutoffs (8 A, 5 A).
        type 1 (Ti with Z = 22) has cutoffs (8 A, 5 A).
    (default) will not add the ZBL potential.
    (input)   n_max_radial = 12.
    (input)   n_max_angular = 8.
    (input)   basis_size_radial = 6.
    (input)   basis_size_angular = 6.
    (input)   l_max_3body = 4.
    (input)   has_q_222 = 1.
    (input)   has_q_1111 = 0.
    (input)   has_q_112 = 0.
    (input)   has_q_123 = 0.
    (input)   has_q_233 = 0.
    (input)   has_q_134 = 0.
    (input)   number of neurons = 60.
    (input)   lambda_1 = 0.05.
    (input)   lambda_2 = 0.05.
    (input)   lambda_e = 1.
    (input)   lambda_f = 1.
    (input)   lambda_v = 0.1.
    (default) atomic_v = 0.
    (default) lambda_shear = 1.
    (default) force_delta = 0.
    (input)   batch size = 1000.
    (input)   population size = 50.
    (input)   maximum number of generations = 400000.
    (default) save potential every N = 100000 generations.
Some calculated parameters:
    number of radial descriptor components = 13.
    number of angular descriptor components = 45.
    total number of descriptor components = 58.
    NN architecture = 58-60-1.
    number of NN parameters to be optimized = 7201.
    number of descriptor parameters to be optimized = 616.
    total number of parameters to be optimized = 7817.

---------------------------------------------------------------
Finished reading nep.in.
---------------------------------------------------------------


---------------------------------------------------------------
Started reading train.xyz
---------------------------------------------------------------

Number of configurations = 2232.
Number of devices = 1
Number of batches = 3
Hello, I changed the batch_size from 1000 to 744.

Batch 0:
Number of configurations = 744.

---------------------------------------------------------------
Constructing train_set in device  0.
Total number of atoms = 20652.
Number of atoms in the largest configuration = 96.
Number of configurations having virial = 744.
Radial descriptor with a cutoff of 8 A:
    Minimum number of neighbors for one atom = 53.
    Maximum number of neighbors for one atom = 161.
    Average number of neighbors for one atom = 114.715.
Angular descriptor with a cutoff of 5 A:
    Minimum number of neighbors for one atom = 12.
    Maximum number of neighbors for one atom = 40.
    Average number of neighbors for one atom = 25.4902.
---------------------------------------------------------------


Batch 1:
Number of configurations = 744.

---------------------------------------------------------------
Constructing train_set in device  0.
Total number of atoms = 21115.
Number of atoms in the largest configuration = 96.
Number of configurations having virial = 744.
Radial descriptor with a cutoff of 8 A:
    Minimum number of neighbors for one atom = 51.
    Maximum number of neighbors for one atom = 161.
    Average number of neighbors for one atom = 114.393.
Angular descriptor with a cutoff of 5 A:
    Minimum number of neighbors for one atom = 10.
    Maximum number of neighbors for one atom = 40.
    Average number of neighbors for one atom = 25.4968.
---------------------------------------------------------------


Batch 2:
Number of configurations = 744.

---------------------------------------------------------------
Constructing train_set in device  0.
Total number of atoms = 20309.
Number of atoms in the largest configuration = 96.
Number of configurations having virial = 744.
Radial descriptor with a cutoff of 8 A:
    Minimum number of neighbors for one atom = 57.
    Maximum number of neighbors for one atom = 161.
    Average number of neighbors for one atom = 114.476.
Angular descriptor with a cutoff of 5 A:
    Minimum number of neighbors for one atom = 11.
    Maximum number of neighbors for one atom = 41.
    Average number of neighbors for one atom = 25.4089.
---------------------------------------------------------------


---------------------------------------------------------------
Started reading test.xyz
---------------------------------------------------------------

Number of configurations = 20.

---------------------------------------------------------------
Constructing test_set in device  0.
Total number of atoms = 594.
Number of atoms in the largest configuration = 72.
Number of configurations having virial = 20.
Radial descriptor with a cutoff of 8 A:
    Minimum number of neighbors for one atom = 83.
    Maximum number of neighbors for one atom = 147.
    Average number of neighbors for one atom = 104.603.
Angular descriptor with a cutoff of 5 A:
    Minimum number of neighbors for one atom = 16.
    Maximum number of neighbors for one atom = 36.
    Average number of neighbors for one atom = 23.6229.
---------------------------------------------------------------


---------------------------------------------------------------
Time used for initialization = 0.492912 s.
---------------------------------------------------------------


---------------------------------------------------------------
Started training.
---------------------------------------------------------------

Step    Total-Loss L1Reg-Loss L2Reg-Loss RMSE-E-Train RMSE-F-Train RMSE-V-Train RMSE-E-Test  RMSE-F-Test  RMSE-V-Test  
100     1.62047    0.02649    0.03136    0.16037      1.35278      0.49472      0.25959      2.44136      0.54628      
200     0.82923    0.02745    0.03303    0.15857      0.54599      0.64197      0.16991      0.96238      0.54385      
300     1.28318    0.02881    0.03504    0.12432      1.05133      0.43675      0.20685      0.67707      0.38574      
400     0.71602    0.03007    0.03674    0.14994      0.45697      0.42303      0.16325      0.54435      0.32608      
500     0.69080    0.03116    0.03813    0.14920      0.43080      0.41508      0.11434      0.53448      0.44101      
600     0.96542    0.03254    0.04000    0.09447      0.75984      0.38574      0.17554      0.62683      0.47059      
700     0.69551    0.03358    0.04145    0.12551      0.45840      0.36564      0.17708      0.57029      0.35956      
800     0.62878    0.03484    0.04298    0.09620      0.42371      0.31057      0.14157      0.61388      0.22810      
900     0.82949    0.03587    0.04444    0.15480      0.55733      0.37050      0.17724      0.54202      0.25161      
1000    0.70599    0.03686    0.04590    0.12602      0.45624      0.40972      0.14812      0.62194      0.27530      
1100    0.63474    0.03800    0.04728    0.12232      0.39051      0.36629      0.13564      0.59842      0.21568      
1200    0.79212    0.03921    0.04877    0.15171      0.51149      0.40947      0.17117      0.57182      0.33119      
1300    0.68205    0.04023    0.05018    0.14168      0.41390      0.36063      0.14245      0.59469      0.28485      
1400    0.66738    0.04118    0.05139    0.11708      0.40741      0.50326      0.12446      0.54956      0.26730      
1500    0.70972    0.04209    0.05268    0.13714      0.44482      0.32986      0.15099      0.49631      0.23383      
1600    0.66057    0.04301    0.05393    0.14254      0.38155      0.39538      0.19863      0.45409      0.24333      
1700    0.61038    0.04399    0.05525    0.10706      0.36332      0.40761      0.21585      0.50616      0.24769      
1800    0.69213    0.04504    0.05647    0.09828      0.45625      0.36106      0.19447      0.55327      0.29117      
1900    0.66011    0.04568    0.05740    0.13505      0.38191      0.40069      0.18943      0.54375      0.48597      
2000    0.63005    0.04677    0.05886    0.10070      0.38556      0.38161      0.13168      0.53157      0.44818      
2100    0.68534    0.04756    0.05992    0.10544      0.42479      0.47634      0.11907      0.52537      0.37773      
2200    0.63756    0.04828    0.06097    0.14322      0.35030      0.34785      0.22133      0.51733      0.32900      
2300    0.65662    0.04905    0.06212    0.12979      0.37846      0.37216      0.16944      0.51324      0.27824      
2400    0.66841    0.04969    0.06269    0.10369      0.41893      0.33410      0.16624      0.51723      0.35141      
2500    0.61014    0.05067    0.06408    0.10303      0.35881      0.33550      0.17904      0.54879      0.36676      
2600    0.62066    0.05152    0.06515    0.11769      0.34786      0.38437      0.08206      0.42110      0.23021      
2700    0.67309    0.05238    0.06619    0.12467      0.40065      0.29201      0.14719      0.47680      0.33230      
2800    0.61058    0.05330    0.06743    0.09272      0.35529      0.41846      0.13266      0.41856      0.21061      
2900    0.58159    0.05389    0.06823    0.11383      0.31632      0.29307      0.09730      0.39921      0.24669      
3000    0.65272    0.05442    0.06906    0.11218      0.38214      0.34926      0.11408      0.49866      0.21880      
3100    0.60779    0.05535    0.07039    0.08617      0.36504      0.30840      0.11877      0.49196      0.30314      
3200    0.59035    0.05622    0.07148    0.08923      0.34327      0.30152      0.12659      0.47165      0.23060      
3300    0.62219    0.05704    0.07246    0.07890      0.37504      0.38753      0.16065      0.42269      0.29631      
3400    0.64764    0.05750    0.07340    0.10499      0.36976      0.41981      0.15970      0.54508      0.35159      
3500    0.59312    0.05842    0.07455    0.09810      0.32589      0.36164      0.14180      0.40478      0.29023      
3600    0.63725    0.05937    0.07574    0.09165      0.37664      0.33843      0.11493      0.54070      0.29932      
3700    0.59411    0.06003    0.07651    0.08586      0.34139      0.30313      0.13879      0.48456      0.33623      
3800    0.64290    0.06080    0.07764    0.11801      0.35852      0.27924      0.14295      0.57609      0.30861      
3900    0.66949    0.06184    0.07890    0.11837      0.37391      0.36472      0.12188      0.43431      0.22015      
4000    0.62908    0.06263    0.07990    0.10700      0.34193      0.37619      0.23204      0.49228      0.24469      
4100    0.62413    0.06326    0.08080    0.10357      0.33512      0.41376      0.15466      0.44489      0.26280      
4200    0.66428    0.06394    0.08198    0.09448      0.37920      0.44689      0.11863      0.42788      0.30464      
4300    0.62485    0.06450    0.08262    0.08945      0.34931      0.38964      0.12556      0.45995      0.35714      
4400    0.61485    0.06511    0.08353    0.09711      0.32828      0.40822      0.11229      0.45771      0.34438      
4500    0.66863    0.06567    0.08424    0.10323      0.38644      0.29052      0.17915      0.46867      0.33601      
4600    0.60202    0.06639    0.08527    0.08543      0.32749      0.37442      0.13895      0.44840      0.22558      
4700    0.57764    0.06687    0.08603    0.08037      0.31811      0.26267      0.09879      0.42097      0.22145      
4800    0.60813    0.06728    0.08680    0.06865      0.35666      0.28745      0.09000      0.41763      0.33732      
4900    0.60943    0.06763    0.08744    0.07621      0.34162      0.36524      0.09741      0.42282      0.39442      
5000    0.58434    0.06826    0.08820    0.08573      0.31360      0.28545      0.12662      0.41407      0.25852      
5100    0.63094    0.06888    0.08913    0.07949      0.36563      0.27805      0.17571      0.41738      0.22044      
5200    0.64090    0.06951    0.08988    0.10543      0.34573      0.30351      0.11305      0.45986      0.24219      
5300    0.58895    0.07026    0.09081    0.07399      0.32609      0.27797      0.10309      0.49415      0.20933      
5400    0.62432    0.07071    0.09155    0.08690      0.35084      0.24325      0.14827      0.42355      0.20073      
5500    0.61036    0.07146    0.09234    0.08840      0.32939      0.28770      0.15027      0.45488      0.24953      
5600    0.62471    0.07211    0.09306    0.10085      0.32743      0.31261      0.10894      0.41616      0.17772      
5700    0.66508    0.07256    0.09373    0.11939      0.34913      0.30277      0.13028      0.42903      0.25348      
5800    0.61506    0.07310    0.09460    0.08776      0.33260      0.26997      0.12858      0.53880      0.24578      
5900    0.61514    0.07387    0.09544    0.09200      0.32063      0.33204      0.12128      0.45883      0.25332      
6000    0.63760    0.07444    0.09609    0.09600      0.34815      0.22920      0.15938      0.41510      0.27607      
6100    0.59525    0.07512    0.09719    0.08090      0.31275      0.29285      0.10150      0.50166      0.21305      
6200    0.57937    0.07553    0.09787    0.06550      0.31438      0.26085      0.10308      0.42846      0.19507      
6300    0.61124    0.07630    0.09882    0.09124      0.32074      0.24142      0.09831      0.48049      0.33862      
6400    0.64349    0.07686    0.09966    0.12122      0.31798      0.27778      0.11299      0.49668      0.28757      
6500    0.58855    0.07766    0.10056    0.08177      0.29818      0.30377      0.13254      0.37466      0.18351      
6600    0.60415    0.07845    0.10169    0.07442      0.32391      0.25684      0.13071      0.43373      0.28464      
6700    0.60988    0.07872    0.10201    0.08630      0.31111      0.31729      0.16091      0.44681      0.29732      
6800    0.59730    0.07942    0.10285    0.07668      0.30499      0.33372      0.11546      0.41841      0.22555      
6900    0.62141    0.08005    0.10345    0.08469      0.32620      0.27018      0.11811      0.38729      0.26066      
7000    0.59390    0.08071    0.10424    0.07506      0.29880      0.35083      0.12134      0.48081      0.26666      
7100    0.58424    0.08133    0.10506    0.07683      0.28887      0.32148      0.15240      0.39564      0.29365      
7200    0.61204    0.08200    0.10602    0.07146      0.32413      0.28427      0.09441      0.47600      0.24659      
7300    0.60091    0.08262    0.10677    0.06732      0.31322      0.30985      0.12178      0.43203      0.19989      
7400    0.57365    0.08297    0.10740    0.07245      0.28522      0.25604      0.10693      0.37900      0.27846      
7500    0.61475    0.08353    0.10816    0.06169      0.33413      0.27250      0.09581      0.39074      0.19501      
7600    0.60923    0.08414    0.10900    0.07170      0.31173      0.32661      0.16394      0.45812      0.30895      
7700    0.56879    0.08455    0.10959    0.06533      0.28058      0.28737      0.11519      0.36886      0.20255      
7800    0.58937    0.08516    0.11040    0.06303      0.30616      0.24620      0.11806      0.40442      0.25324      
7900    0.60574    0.08561    0.11120    0.07342      0.30775      0.27765      0.09700      0.48495      0.28686      
8000    0.60550    0.08615    0.11204    0.07785      0.30559      0.23864      0.15118      0.46738      0.23425      
8100    0.60919    0.08668    0.11294    0.07754      0.30963      0.22396      0.11509      0.38258      0.16808      
8200    0.59956    0.08704    0.11336    0.06552      0.31017      0.23471      0.10184      0.38936      0.17568      
8300    0.60457    0.08764    0.11418    0.07967      0.29269      0.30381      0.09415      0.38488      0.25247      
8400    0.59726    0.08804    0.11480    0.06812      0.29850      0.27803      0.12337      0.38475      0.26113      
8500    0.58661    0.08854    0.11556    0.06395      0.29761      0.20951      0.12410      0.37549      0.15646      
8600    0.59461    0.08913    0.11608    0.06420      0.29976      0.25453      0.08088      0.42046      0.25015      
8700    0.61096    0.08933    0.11643    0.06685      0.31716      0.21195      0.10714      0.40711      0.18410      
8800    0.59923    0.08940    0.11667    0.07073      0.29486      0.27573      0.12122      0.46564      0.27089      
8900    0.59577    0.08993    0.11771    0.07252      0.29298      0.22634      0.10143      0.40478      0.17161      
9000    0.62580    0.09023    0.11809    0.07431      0.32265      0.20533      0.12202      0.38362      0.14807      
9100    0.58992    0.09068    0.11906    0.06355      0.29699      0.19631      0.07557      0.37828      0.17268      
9200    0.59958    0.09133    0.11989    0.07678      0.29112      0.20456      0.14303      0.38673      0.16167      
9300    0.62062    0.09196    0.12080    0.07016      0.31473      0.22969      0.15107      0.38459      0.18095      
9400    0.60871    0.09232    0.12147    0.07230      0.29741      0.25213      0.07518      0.37315      0.23877      
9500    0.60616    0.09286    0.12232    0.06375      0.30455      0.22672      0.09539      0.42344      0.19880      
9600    0.60220    0.09298    0.12293    0.06958      0.29525      0.21461      0.09700      0.44975      0.17636      
9700    0.60365    0.09366    0.12378    0.06477      0.30110      0.20344      0.12200      0.45185      0.19453      
9800    0.59537    0.09447    0.12494    0.05991      0.28799      0.28059      0.12561      0.39203      0.23426      
9900    0.60755    0.09498    0.12569    0.05207      0.30802      0.26805      0.09862      0.36037      0.21883      
10000   0.60476    0.09560    0.12658    0.06837      0.29304      0.21161      0.11175      0.40867      0.22121      
10100   0.59849    0.09593    0.12705    0.07406      0.27672      0.24728      0.08291      0.42649      0.25149      
10200   0.61212    0.09637    0.12762    0.06958      0.29447      0.24074      0.13409      0.39929      0.23790      
10300   0.60660    0.09688    0.12846    0.07075      0.28152      0.28994      0.09415      0.35573      0.19278      
10400   0.58341    0.09717    0.12885    0.06347      0.27182      0.22082      0.11017      0.40294      0.23420      
10500   0.61892    0.09763    0.12938    0.06569      0.30033      0.25883      0.10488      0.37187      0.19923      
10600   0.59965    0.09799    0.12990    0.06744      0.28122      0.23099      0.15251      0.32747      0.16382      
10700   0.58944    0.09845    0.13029    0.05339      0.28018      0.27133      0.09367      0.33712      0.19301      
10800   0.60206    0.09890    0.13112    0.05890      0.29025      0.22902      0.13548      0.37460      0.16176      
10900   0.58375    0.09898    0.13122    0.06230      0.26819      0.23065      0.13137      0.33984      0.19099      
11000   0.58359    0.09984    0.13268    0.05750      0.26904      0.24521      0.11516      0.33597      0.18369      
11100   0.60713    0.10039    0.13341    0.05661      0.29462      0.22110      0.08095      0.34115      0.17160      
11200   0.58290    0.10049    0.13394    0.05416      0.27109      0.23219      0.10489      0.34312      0.22840      
11300   0.59065    0.10079    0.13417    0.05868      0.27579      0.21223      0.09355      0.31783      0.20285      
11400   0.59354    0.10160    0.13537    0.05108      0.28552      0.19972      0.07709      0.38594      0.19901      
11500   0.59510    0.10202    0.13584    0.06003      0.27243      0.24778      0.07171      0.33427      0.20170      
11600   0.58785    0.10222    0.13621    0.04916      0.27666      0.23604      0.09045      0.31917      0.21125      
11700   0.61958    0.10259    0.13676    0.06138      0.29090      0.27948      0.10661      0.38498      0.25454      
11800   0.58809    0.10284    0.13719    0.05062      0.27560      0.21837      0.09527      0.31654      0.17454      
11900   0.58450    0.10320    0.13774    0.05023      0.27202      0.21313      0.09262      0.35328      0.16453      
12000   0.59764    0.10384    0.13854    0.04466      0.29035      0.20252      0.07585      0.35376      0.16041      
12100   0.58879    0.10428    0.13898    0.04971      0.27334      0.22482      0.08428      0.32954      0.21252      
12200   0.58666    0.10484    0.13993    0.05192      0.26440      0.25572      0.08521      0.38033      0.17941      
12300   0.61271    0.10547    0.14098    0.05936      0.28685      0.20047      0.05943      0.35773      0.16275      
12400   0.59372    0.10598    0.14160    0.05064      0.27402      0.21480      0.07458      0.34526      0.18256      
12500   0.59558    0.10613    0.14181    0.05095      0.27598      0.20703      0.08641      0.41380      0.19084      
12600   0.61451    0.10655    0.14257    0.05029      0.29350      0.21602      0.07516      0.36274      0.21038      
12700   0.58590    0.10645    0.14241    0.04628      0.26947      0.21286      0.06451      0.33385      0.15524      
12800   0.58744    0.10668    0.14317    0.04565      0.26810      0.23851      0.06576      0.35775      0.21628      
12900   0.60960    0.10708    0.14347    0.05084      0.28683      0.21382      0.04549      0.34856      0.18502      
13000   0.58187    0.10716    0.14353    0.05270      0.25797      0.20505      0.07491      0.36832      0.20642      
13100   0.58804    0.10735    0.14363    0.05502      0.26045      0.21581      0.07582      0.40265      0.20407      
13200   0.60706    0.10773    0.14411    0.04424      0.29207      0.18919      0.05749      0.33252      0.19587      
13300   0.57177    0.10806    0.14464    0.04419      0.25459      0.20292      0.06991      0.40027      0.25413      
13400   0.57966    0.10851    0.14514    0.04829      0.25902      0.18700      0.07287      0.44219      0.21644      
13500   0.60225    0.10876    0.14540    0.04433      0.28417      0.19578      0.07169      0.37569      0.23217      
13600   0.58526    0.10921    0.14622    0.05266      0.25815      0.19009      0.07747      0.39146      0.18225      
13700   0.58445    0.10964    0.14701    0.05320      0.25505      0.19552      0.05210      0.36688      0.19251      
13800   0.59374    0.10988    0.14732    0.04224      0.27409      0.20205      0.04780      0.32851      0.18405      
13900   0.58399    0.11023    0.14777    0.04780      0.25889      0.19299      0.06461      0.34531      0.19796      
14000   0.57952    0.11084    0.14869    0.04842      0.25017      0.21408      0.05460      0.35542      0.17964      
14100   0.59995    0.11113    0.14895    0.04550      0.27379      0.20577      0.06881      0.33241      0.15519      
14200   0.58695    0.11103    0.14872    0.05057      0.25705      0.19589      0.06307      0.32674      0.19320      
14300   0.58414    0.11174    0.14944    0.05196      0.25339      0.17616      0.05211      0.34928      0.21489      
14400   0.60368    0.11192    0.14983    0.04642      0.27460      0.20915      0.07030      0.37840      0.19113      
14500   0.57654    0.11212    0.15018    0.04497      0.25014      0.19112      0.05424      0.36517      0.22767      
14600   0.57256    0.11223    0.15059    0.04326      0.24957      0.16912      0.05254      0.35106      0.21452      
14700   0.58836    0.11270    0.15131    0.04400      0.26313      0.17225      0.05800      0.33052      0.19894      
14800   0.57557    0.11302    0.15170    0.04294      0.24685      0.21058      0.05624      0.36358      0.20394      
14900   0.56784    0.11354    0.15211    0.04143      0.24263      0.18129      0.04456      0.36284      0.17432      
15000   0.58950    0.11372    0.15252    0.04446      0.25994      0.18858      0.08754      0.33257      0.19599      
15100   0.57951    0.11385    0.15301    0.04873      0.24211      0.21816      0.09697      0.42001      0.19567      
15200   0.57534    0.11405    0.15347    0.04441      0.24525      0.18160      0.07463      0.35122      0.19280      
15300   0.59006    0.11429    0.15371    0.04375      0.25988      0.18429      0.06830      0.31381      0.15787      
15400   0.57170    0.11474    0.15413    0.04116      0.24277      0.18910      0.08733      0.37398      0.22021      
15500   0.57318    0.11525    0.15455    0.04749      0.23777      0.18123      0.06963      0.36392      0.23299      
15600   0.59104    0.11571    0.15540    0.03871      0.26271      0.18509      0.06194      0.42109      0.26466      
15700   0.57856    0.11613    0.15613    0.04531      0.24195      0.19038      0.07420      0.33481      0.19258      
15800   0.56993    0.11649    0.15681    0.03761      0.24023      0.18777      0.06091      0.37131      0.21288      
15900   0.58839    0.11675    0.15730    0.03703      0.25915      0.18164      0.04416      0.37885      0.22261      
16000   0.56881    0.11688    0.15748    0.04096      0.23540      0.18103      0.06490      0.37265      0.20045      
16100   0.56763    0.11707    0.15767    0.04172      0.23393      0.17239      0.06045      0.32952      0.18747      
16200   0.58353    0.11721    0.15785    0.03930      0.25183      0.17333      0.07019      0.42609      0.17839      
16300   0.57026    0.11748    0.15824    0.03831      0.23967      0.16558      0.05567      0.39879      0.21233      
16400   0.56899    0.11789    0.15899    0.03908      0.23665      0.16366      0.06755      0.41147      0.18674      
16500   0.59262    0.11808    0.15927    0.03925      0.25921      0.16817      0.06270      0.39611      0.19619      
16600   0.57831    0.11851    0.15975    0.03712      0.24455      0.18387      0.04500      0.35196      0.21417      
16700   0.57305    0.11868    0.16006    0.04311      0.23226      0.18951      0.04259      0.33572      0.21889      
16800   0.58502    0.11901    0.16062    0.03531      0.25313      0.16950      0.04778      0.34489      0.21065      
16900   0.57129    0.11895    0.16084    0.03837      0.23509      0.18038      0.07188      0.35166      0.22841      
17000   0.57619    0.11905    0.16081    0.04133      0.23652      0.18480      0.05623      0.35683      0.26195      
17100   0.58783    0.11935    0.16153    0.03719      0.25180      0.17956      0.06658      0.32321      0.27889      
17200   0.57616    0.11969    0.16201    0.03909      0.23731      0.18068      0.05457      0.36220      0.24686      
17300   0.57589    0.11986    0.16195    0.04237      0.23438      0.17341      0.07835      0.34497      0.22283      
17400   0.58970    0.12034    0.16254    0.03959      0.25023      0.16999      0.06096      0.36754      0.19837      
17500   0.58115    0.12055    0.16271    0.03792      0.24158      0.18389      0.08256      0.39986      0.23961      
17600   0.57213    0.12053    0.16254    0.03937      0.23040      0.19293      0.07055      0.37515      0.25369      
17700   0.58678    0.12093    0.16311    0.04063      0.24629      0.15826      0.08563      0.37789      0.24648      
17800   0.57574    0.12090    0.16339    0.03903      0.23390      0.18518      0.07799      0.35086      0.28471      
17900   0.57762    0.12117    0.16378    0.03907      0.23586      0.17728      0.07612      0.36057      0.21450      
18000   0.58523    0.12106    0.16386    0.03695      0.24748      0.15871      0.06424      0.34945      0.20868      
18100   0.57971    0.12149    0.16443    0.04373      0.23175      0.18313      0.08774      0.35399      0.24016      
18200   0.57109    0.12166    0.16441    0.03635      0.22916      0.19507      0.07821      0.32568      0.22040      
18300   0.58832    0.12193    0.16481    0.04314      0.24146      0.16970      0.05776      0.35971      0.21518      
18400   0.57211    0.12214    0.16496    0.03767      0.22887      0.18460      0.07641      0.39240      0.27338      
18500   0.56733    0.12236    0.16521    0.03778      0.22549      0.16495      0.07534      0.36627      0.23545      
18600   0.58119    0.12275    0.16595    0.03332      0.24111      0.18069      0.05170      0.41920      0.20231      
18700   0.57506    0.12283    0.16626    0.04055      0.22774      0.17688      0.07038      0.38876      0.20597      
18800   0.56540    0.12288    0.16631    0.03457      0.22540      0.16231      0.06694      0.37902      0.21093      
18900   0.57993    0.12361    0.16756    0.03130      0.24096      0.16498      0.04737      0.39904      0.21189      
19000   0.57572    0.12359    0.16801    0.03419      0.23314      0.16793      0.05993      0.44780      0.18382      
19100   0.56973    0.12375    0.16798    0.03584      0.22571      0.16453      0.06179      0.39616      0.20272      
19200   0.59042    0.12414    0.16817    0.03921      0.24290      0.15983      0.05237      0.43187      0.18745      
19300   0.57148    0.12442    0.16853    0.03355      0.22839      0.16587      0.05927      0.36785      0.20312      
19400   0.56684    0.12415    0.16823    0.03698      0.22062      0.16866      0.05958      0.39913      0.21142      
19500   0.58568    0.12397    0.16815    0.03689      0.23964      0.17031      0.05787      0.37423      0.23241      
19600   0.56658    0.12426    0.16846    0.03480      0.22282      0.16235      0.05659      0.39936      0.21418      
19700   0.56452    0.12460    0.16918    0.03290      0.22213      0.15708      0.06369      0.43879      0.24191      
19800   0.57872    0.12483    0.16927    0.03361      0.23474      0.16265      0.05091      0.40989      0.24308      
19900   0.57023    0.12496    0.16992    0.03036      0.22685      0.18147      0.06652      0.41914      0.24927      
20000   0.56600    0.12505    0.16990    0.03631      0.21884      0.15896      0.07076      0.39762      0.22819      
20100   0.57658    0.12538    0.16995    0.03067      0.23455      0.16036      0.05420      0.40376      0.22259      
20200   0.56964    0.12587    0.17067    0.03144      0.22373      0.17923      0.05749      0.42714      0.23667      
20300   0.56548    0.12610    0.17124    0.03010      0.22181      0.16224      0.04273      0.39901      0.19541      
20400   0.58479    0.12604    0.17093    0.03267      0.23620      0.18949      0.04930      0.45701      0.20082      
20500   0.56910    0.12627    0.17105    0.03430      0.22131      0.16171      0.04729      0.50446      0.19662      
20600   0.56795    0.12636    0.17084    0.03559      0.21882      0.16343      0.04055      0.45440      0.21811      
20700   0.58323    0.12635    0.17100    0.03304      0.23630      0.16545      0.06771      0.47807      0.17680      
20800   0.57059    0.12660    0.17125    0.03458      0.22122      0.16948      0.05740      0.48926      0.18282      
20900   0.56621    0.12665    0.17152    0.03061      0.22028      0.17146      0.05029      0.48960      0.20173      
21000   0.58491    0.12679    0.17176    0.03089      0.23867      0.16808      0.05919      0.42506      0.17845      
21100   0.56673    0.12712    0.17216    0.03160      0.21945      0.16401      0.05379      0.48045      0.19126      
21200   0.56869    0.12738    0.17262    0.03457      0.21758      0.16550      0.05533      0.45894      0.19288      
21300   0.58338    0.12723    0.17210    0.03235      0.23405      0.17642      0.04268      0.49419      0.26327      
21400   0.56895    0.12740    0.17270    0.03258      0.21829      0.17981      0.03736      0.48091      0.25927      
21500   0.56439    0.12752    0.17256    0.03049      0.21437      0.19454      0.05043      0.40241      0.22878      
21600   0.58492    0.12757    0.17250    0.03349      0.23509      0.16260      0.05020      0.41908      0.24411      
21700   0.56940    0.12779    0.17290    0.03421      0.21879      0.15712      0.06038      0.46331      0.21050      
21800   0.56293    0.12801    0.17301    0.03121      0.21433      0.16370      0.06398      0.42264      0.23736      
21900   0.58378    0.12766    0.17235    0.03580      0.23091      0.17055      0.07575      0.49131      0.21686      
22000   0.56515    0.12803    0.17268    0.03141      0.21648      0.16550      0.05875      0.45941      0.23601      
22100   0.56151    0.12787    0.17297    0.03129      0.21343      0.15948      0.05826      0.43039      0.19561      
22200   0.57859    0.12815    0.17327    0.03280      0.22827      0.16096      0.04597      0.44241      0.25477      
22300   0.56771    0.12844    0.17365    0.03109      0.21737      0.17160      0.04980      0.47295      0.22006      
22400   0.56168    0.12837    0.17352    0.02995      0.21392      0.15924      0.05290      0.45906      0.20946      
22500   0.57714    0.12851    0.17350    0.02687      0.23163      0.16632      0.03871      0.44662      0.26318      
22600   0.56766    0.12800    0.17265    0.03099      0.21937      0.16652      0.06123      0.44017      0.21149      
22700   0.55888    0.12809    0.17302    0.02796      0.21336      0.16445      0.04088      0.39884      0.23009      
22800   0.57296    0.12848    0.17328    0.02935      0.22484      0.17012      0.05021      0.44111      0.23984      
22900   0.56162    0.12843    0.17315    0.02972      0.21403      0.16286      0.05776      0.41816      0.24810      
23000   0.55907    0.12835    0.17321    0.02914      0.21149      0.16876      0.04649      0.43787      0.24701      
23100   0.57548    0.12845    0.17331    0.02943      0.22760      0.16699      0.03483      0.38863      0.28853      
23200   0.56436    0.12863    0.17346    0.02895      0.21477      0.18556      0.05452      0.42873      0.21457      
23300   0.55632    0.12849    0.17327    0.02947      0.20934      0.15752      0.05338      0.43169      0.17502      
23400   0.57360    0.12812    0.17262    0.02956      0.22674      0.16573      0.05150      0.44792      0.19163      
23500   0.55898    0.12832    0.17289    0.02988      0.21283      0.15059      0.05702      0.46928      0.21165      
23600   0.55487    0.12816    0.17279    0.02873      0.20975      0.15442      0.04977      0.44753      0.24374      
23700   0.56653    0.12828    0.17276    0.02814      0.22125      0.16100      0.05329      0.43294      0.24992      
23800   0.55822    0.12801    0.17295    0.03143      0.21071      0.15124      0.05500      0.48404      0.20376      
23900   0.55587    0.12822    0.17309    0.02994      0.20867      0.15946      0.06142      0.45292      0.25558      
24000   0.57244    0.12874    0.17367    0.02707      0.22762      0.15350      0.04856      0.46072      0.22382      
24100   0.55909    0.12920    0.17400    0.02830      0.21122      0.16365      0.04418      0.51383      0.20744      
24200   0.55836    0.12932    0.17405    0.02989      0.20956      0.15530      0.05165      0.44427      0.19227      
24300   0.57039    0.12912    0.17400    0.03150      0.22056      0.15219      0.04608      0.42577      0.21319      
24400   0.55935    0.12882    0.17358    0.02972      0.21059      0.16644      0.05896      0.50943      0.25021      
24500   0.55469    0.12899    0.17376    0.02967      0.20694      0.15322      0.05224      0.44079      0.22527      
24600   0.57066    0.12914    0.17403    0.02746      0.22327      0.16762      0.03874      0.44104      0.24278      
24700   0.55731    0.12946    0.17463    0.02949      0.20786      0.15880      0.05266      0.47712      0.21828      
24800   0.55538    0.12930    0.17400    0.02790      0.20812      0.16062      0.05220      0.45502      0.27114      
24900   0.56234    0.12911    0.17405    0.02762      0.21702      0.14541      0.05622      0.37792      0.26184      
25000   0.55740    0.12975    0.17498    0.02963      0.20685      0.16191      0.06215      0.46870      0.22373      
25100   0.55632    0.12954    0.17465    0.03093      0.20630      0.14905      0.04622      0.43619      0.23833      
25200   0.56699    0.12963    0.17484    0.02879      0.21818      0.15555      0.04545      0.42004      0.21973      
25300   0.55441    0.12959    0.17489    0.03023      0.20418      0.15516      0.05341      0.41811      0.24544      
25400   0.55339    0.12960    0.17474    0.02859      0.20498      0.15477      0.05157      0.41681      0.24344      
25500   0.56359    0.12966    0.17495    0.02981      0.21422      0.14949      0.05121      0.42916      0.26172      
25600   0.55388    0.12942    0.17474    0.02970      0.20505      0.14973      0.05730      0.42793      0.21818      
25700   0.55067    0.12933    0.17421    0.02909      0.20343      0.14616      0.04978      0.38327      0.23021      
25800   0.56162    0.12933    0.17411    0.02770      0.21352      0.16954      0.04747      0.43592      0.24218      
25900   0.55090    0.12921    0.17397    0.02844      0.20424      0.15029      0.04886      0.43634      0.25090      
26000   0.55046    0.12948    0.17454    0.02859      0.20328      0.14575      0.04957      0.42113      0.24647      
26100   0.55918    0.12924    0.17399    0.02667      0.21421      0.15076      0.05042      0.43221      0.25801      
26200   0.54838    0.12939    0.17411    0.02733      0.20275      0.14805      0.05719      0.45940      0.26523      
26300   0.54793    0.12949    0.17390    0.02609      0.20371      0.14746      0.04510      0.43141      0.24866      
26400   0.56148    0.12954    0.17411    0.03009      0.21257      0.15157      0.05850      0.41508      0.24779      
26500   0.54761    0.12904    0.17346    0.02751      0.20178      0.15816      0.04312      0.45645      0.23523      
26600   0.54842    0.12919    0.17369    0.02552      0.20417      0.15856      0.05087      0.39977      0.26906      
26700   0.56048    0.12899    0.17366    0.02706      0.21603      0.14745      0.05204      0.36645      0.25260      
26800   0.54931    0.12874    0.17328    0.02634      0.20573      0.15216      0.03857      0.40149      0.24884      
26900   0.54645    0.12880    0.17325    0.02922      0.20008      0.15096      0.05301      0.37599      0.23860      
27000   0.55840    0.12912    0.17368    0.02815      0.21171      0.15741      0.05352      0.38460      0.25602      
27100   0.54921    0.12898    0.17354    0.02930      0.20157      0.15814      0.04799      0.40886      0.24326      
27200   0.54480    0.12920    0.17366    0.02613      0.20039      0.15411      0.03704      0.39454      0.22736      
27300   0.55649    0.12892    0.17344    0.03028      0.20905      0.14805      0.05807      0.37692      0.22195      
27400   0.54263    0.12894    0.17347    0.02694      0.19804      0.15230      0.04784      0.36793      0.24354      
27500   0.54491    0.12863    0.17334    0.02718      0.20080      0.14955      0.06212      0.37600      0.23493      
27600   0.55320    0.12831    0.17272    0.02722      0.20930      0.15659      0.06135      0.37941      0.27474      
27700   0.54181    0.12804    0.17229    0.02601      0.19957      0.15889      0.04966      0.36101      0.26133      
27800   0.54261    0.12836    0.17252    0.02762      0.19845      0.15661      0.06063      0.38419      0.26437      
27900   0.55127    0.12811    0.17222    0.02522      0.21085      0.14871      0.04402      0.35662      0.24316      
28000   0.54032    0.12805    0.17200    0.02867      0.19689      0.14708      0.05955      0.38658      0.20049      
28100   0.54073    0.12824    0.17227    0.02742      0.19743      0.15377      0.05827      0.35803      0.24056      
28200   0.55181    0.12825    0.17234    0.02704      0.20891      0.15264      0.05146      0.36149      0.26463      
28300   0.53990    0.12774    0.17192    0.02892      0.19626      0.15060      0.05000      0.35258      0.25473      
28400   0.53683    0.12771    0.17179    0.02637      0.19582      0.15139      0.05046      0.35852      0.23524      
28500   0.55142    0.12746    0.17122    0.02688      0.20991      0.15950      0.05629      0.35499      0.25029      
28600   0.53720    0.12694    0.17086    0.02728      0.19661      0.15522      0.04802      0.35970      0.25139      
28700   0.53270    0.12655    0.17000    0.02624      0.19419      0.15725      0.05765      0.33493      0.22494      
28800   0.54491    0.12649    0.16986    0.02769      0.20463      0.16231      0.06203      0.34400      0.24506      
28900   0.53351    0.12626    0.16951    0.02995      0.19332      0.14468      0.05848      0.35310      0.21703      
29000   0.53401    0.12652    0.16965    0.02836      0.19504      0.14447      0.05510      0.34372      0.21552      
29100   0.54688    0.12609    0.16934    0.03057      0.20506      0.15808      0.06870      0.36129      0.23623      
29200   0.53013    0.12602    0.16918    0.02579      0.19422      0.14925      0.05490      0.34497      0.27047      
29300   0.52984    0.12545    0.16825    0.02601      0.19512      0.15009      0.05402      0.33872      0.23562      
29400   0.54194    0.12581    0.16849    0.02566      0.20535      0.16635      0.04727      0.36197      0.23014      
29500   0.52747    0.12528    0.16796    0.02504      0.19420      0.14991      0.05540      0.37077      0.23618      
29600   0.52770    0.12520    0.16794    0.02581      0.19350      0.15240      0.05276      0.38870      0.22979      
29700   0.54116    0.12504    0.16788    0.02535      0.20761      0.15280      0.05818      0.41328      0.23471      
29800   0.52726    0.12484    0.16774    0.02402      0.19595      0.14717      0.04974      0.39513      0.20572      
29900   0.52704    0.12472    0.16744    0.02660      0.19320      0.15078      0.05629      0.37228      0.19701      
30000   0.53984    0.12462    0.16744    0.02564      0.20599      0.16144      0.05278      0.37689      0.21522      
30100   0.52566    0.12464    0.16740    0.02572      0.19314      0.14761      0.05134      0.37144      0.22292      
30200   0.52478    0.12461    0.16728    0.02502      0.19298      0.14890      0.05233      0.37122      0.23048      
30300   0.53406    0.12447    0.16718    0.02631      0.20150      0.14594      0.05175      0.35401      0.23751      
30400   0.52287    0.12423    0.16664    0.02470      0.19292      0.14374      0.05595      0.34573      0.23290      
30500   0.52322    0.12403    0.16612    0.02466      0.19432      0.14101      0.04883      0.35722      0.22575      
30600   0.53466    0.12398    0.16576    0.02488      0.20578      0.14255      0.05283      0.41938      0.21672      
30700   0.52099    0.12407    0.16547    0.02588      0.19120      0.14370      0.05562      0.38643      0.22981      
30800   0.51986    0.12400    0.16510    0.02404      0.19222      0.14507      0.04210      0.36482      0.22732      
30900   0.52983    0.12367    0.16485    0.02458      0.20238      0.14355      0.04074      0.39256      0.22345      
31000   0.51696    0.12364    0.16506    0.02437      0.18926      0.14618      0.03959      0.38190      0.22631      
31100   0.51791    0.12354    0.16475    0.02425      0.19099      0.14371      0.04039      0.35246      0.17048      
31200   0.52507    0.12342    0.16439    0.02396      0.19909      0.14205      0.04250      0.33525      0.20642      
31300   0.51369    0.12266    0.16342    0.02606      0.18792      0.13624      0.04148      0.36749      0.19792      
31400   0.51512    0.12225    0.16296    0.02561      0.18997      0.14327      0.04252      0.34773      0.20931      
31500   0.52416    0.12220    0.16254    0.02463      0.20108      0.13704      0.04850      0.37710      0.20293      
31600   0.51169    0.12164    0.16190    0.02468      0.18977      0.13699      0.04337      0.38675      0.20347      
31700   0.51164    0.12130    0.16159    0.02392      0.19092      0.13899      0.04798      0.38090      0.21890      
31800   0.52406    0.12151    0.16153    0.02681      0.20047      0.13745      0.04859      0.37004      0.18574      
31900   0.50897    0.12104    0.16115    0.02500      0.18839      0.13401      0.04295      0.38823      0.19394      
32000   0.50949    0.12118    0.16117    0.02353      0.18941      0.14204      0.05010      0.37476      0.19707      
32100   0.51902    0.12114    0.16108    0.02424      0.19852      0.14033      0.04636      0.38921      0.21644      
32200   0.51050    0.12128    0.16118    0.02503      0.18811      0.14914      0.04486      0.38178      0.23406      
32300   0.50744    0.12101    0.16083    0.02415      0.18736      0.14080      0.04104      0.35031      0.23019      
32400   0.51737    0.12089    0.16044    0.02474      0.19701      0.14294      0.04484      0.35921      0.21140      
32500   0.50804    0.12040    0.16010    0.02551      0.18721      0.14817      0.04168      0.32352      0.22735      
32600   0.50655    0.12050    0.16024    0.02561      0.18649      0.13718      0.04112      0.37117      0.21250      
32700   0.51559    0.12041    0.16037    0.02387      0.19655      0.14395      0.04918      0.33114      0.20687      
32800   0.50548    0.12049    0.16043    0.02499      0.18601      0.13553      0.04540      0.32848      0.21292      
32900   0.50281    0.12026    0.15993    0.02371      0.18541      0.13502      0.04845      0.33057      0.19949      
33000   0.51385    0.12012    0.15990    0.02374      0.19530      0.14781      0.04150      0.32402      0.21120      
33100   0.50261    0.11983    0.15948    0.02353      0.18594      0.13830      0.04190      0.31216      0.18823      
33200   0.50383    0.11999    0.15920    0.02559      0.18524      0.13801      0.04262      0.33128      0.21963      
33300   0.51275    0.11991    0.15902    0.02363      0.19615      0.14042      0.05059      0.32646      0.21363      
33400   0.50304    0.11936    0.15859    0.02498      0.18612      0.13978      0.03990      0.31367      0.22508      
33500   0.50183    0.11905    0.15814    0.02447      0.18574      0.14435      0.04818      0.36695      0.22300      
33600   0.51104    0.11886    0.15795    0.02425      0.19515      0.14839      0.04254      0.32169      0.24115      
33700   0.49909    0.11813    0.15697    0.02514      0.18525      0.13604      0.04502      0.33881      0.23174      
33800   0.49908    0.11819    0.15702    0.02703      0.18297      0.13881      0.04125      0.33259      0.21265      
33900   0.50725    0.11766    0.15647    0.02548      0.19344      0.14211      0.05140      0.31213      0.20515      
34000   0.49698    0.11771    0.15647    0.02490      0.18321      0.14699      0.04151      0.31744      0.21617      
34100   0.49536    0.11757    0.15616    0.02311      0.18452      0.14006      0.03126      0.30490      0.19803      
34200   0.50567    0.11725    0.15580    0.02360      0.19472      0.14309      0.04567      0.30442      0.21992      
34300   0.49295    0.11667    0.15508    0.02420      0.18309      0.13914      0.03652      0.30930      0.23426      
34400   0.49163    0.11607    0.15459    0.02236      0.18410      0.14508      0.03505      0.31137      0.21762      
34500   0.50132    0.11583    0.15415    0.02378      0.19243      0.15129      0.04020      0.34723      0.21479      
34600   0.48919    0.11543    0.15362    0.02443      0.18168      0.14026      0.04595      0.33510      0.22369      
34700   0.48908    0.11529    0.15362    0.02313      0.18268      0.14359      0.03715      0.33838      0.21941      
34800   0.49824    0.11522    0.15365    0.02346      0.19127      0.14641      0.03874      0.32999      0.21957      
34900   0.48882    0.11522    0.15340    0.02310      0.18287      0.14227      0.04316      0.35452      0.23301      
35000   0.48822    0.11514    0.15319    0.02255      0.18328      0.14068      0.03898      0.34169      0.21990      
35100   0.49902    0.11494    0.15312    0.02390      0.19194      0.15121      0.03598      0.34889      0.23364      
35200   0.48546    0.11452    0.15260    0.02192      0.18238      0.14049      0.04192      0.34259      0.20905      
35300   0.48668    0.11456    0.15257    0.02285      0.18290      0.13800      0.04144      0.36688      0.21378      
35400   0.49467    0.11427    0.15233    0.02243      0.19112      0.14521      0.03844      0.32645      0.22655      
35500   0.48328    0.11386    0.15164    0.02250      0.18143      0.13852      0.04469      0.33941      0.21985      
35600   0.48321    0.11377    0.15139    0.02183      0.18213      0.14081      0.04113      0.33725      0.19670      
35700   0.49432    0.11400    0.15178    0.02345      0.19170      0.13384      0.03420      0.33487      0.19900      
35800   0.48317    0.11379    0.15156    0.02200      0.18196      0.13866      0.03800      0.32869      0.19347      
35900   0.48225    0.11310    0.15080    0.02232      0.18250      0.13541      0.03929      0.33024      0.19709      
36000   0.48867    0.11275    0.15019    0.02217      0.18973      0.13829      0.03864      0.34292      0.19183      
36100   0.48025    0.11245    0.14997    0.02320      0.18066      0.13974      0.04076      0.34808      0.21306      
36200   0.47954    0.11224    0.14948    0.02159      0.18253      0.13696      0.03625      0.32300      0.19203      
36300   0.48832    0.11206    0.14935    0.02314      0.18978      0.13990      0.03402      0.32607      0.18482      
36400   0.47859    0.11198    0.14909    0.02201      0.18134      0.14164      0.03296      0.36152      0.19399      
36500   0.47714    0.11173    0.14876    0.02058      0.18185      0.14222      0.03384      0.32224      0.17233      
36600   0.48652    0.11175    0.14881    0.02274      0.18956      0.13660      0.03713      0.37284      0.18972      
36700   0.47677    0.11143    0.14844    0.02208      0.18119      0.13634      0.03549      0.34547      0.17635      
36800   0.47586    0.11073    0.14738    0.02307      0.18118      0.13500      0.03686      0.33433      0.17548      
36900   0.48525    0.11091    0.14753    0.02302      0.18999      0.13794      0.03365      0.32959      0.17278      
37000   0.47475    0.11082    0.14711    0.02231      0.18072      0.13776      0.03487      0.32958      0.18482      
37100   0.47526    0.11058    0.14679    0.02232      0.18159      0.13992      0.03559      0.34458      0.19177      
37200   0.48395    0.11035    0.14670    0.02298      0.18903      0.14888      0.03040      0.34038      0.17878      
37300   0.47345    0.11034    0.14663    0.02153      0.18093      0.14016      0.03113      0.33259      0.17945      
37400   0.47094    0.10983    0.14581    0.02176      0.17973      0.13797      0.03182      0.32807      0.18754      
37500   0.48219    0.10993    0.14588    0.02236      0.18915      0.14872      0.03166      0.35325      0.17656      
37600   0.47075    0.10968    0.14552    0.02150      0.18000      0.14044      0.03073      0.33586      0.18018      
37700   0.46967    0.10941    0.14501    0.02066      0.18089      0.13702      0.02826      0.34430      0.17894      
37800   0.47883    0.10910    0.14461    0.02408      0.18708      0.13963      0.03432      0.32307      0.17399      
37900   0.47016    0.10879    0.14452    0.02074      0.18105      0.15054      0.02989      0.31418      0.16699      
38000   0.46854    0.10860    0.14434    0.02143      0.18060      0.13563      0.03291      0.30239      0.17557      
38100   0.47750    0.10882    0.14449    0.02241      0.18821      0.13564      0.03224      0.31857      0.18045      
38200   0.46767    0.10842    0.14418    0.02102      0.18007      0.13971      0.03196      0.28625      0.16835      
38300   0.46667    0.10845    0.14420    0.02206      0.17859      0.13371      0.03830      0.30636      0.18249      
38400   0.47503    0.10802    0.14380    0.02244      0.18627      0.14498      0.03879      0.31687      0.17981      
38500   0.46564    0.10823    0.14377    0.02060      0.17951      0.13530      0.03173      0.28330      0.19021      
38600   0.46584    0.10792    0.14306    0.02158      0.17958      0.13697      0.03614      0.30059      0.18329      
38700   0.47230    0.10749    0.14284    0.02202      0.18586      0.14086      0.03006      0.30673      0.19910      
38800   0.46227    0.10695    0.14195    0.02279      0.17689      0.13692      0.03077      0.31457      0.20000      
38900   0.46173    0.10699    0.14168    0.02127      0.17831      0.13483      0.03714      0.32682      0.18581      
39000   0.46933    0.10653    0.14124    0.02224      0.18579      0.13520      0.03256      0.29824      0.18859      
39100   0.45985    0.10605    0.14066    0.02247      0.17679      0.13876      0.03580      0.32179      0.18313      
39200   0.45903    0.10589    0.14037    0.02065      0.17838      0.13741      0.03117      0.35163      0.18775      
39300   0.46700    0.10551    0.14004    0.02319      0.18425      0.14021      0.03739      0.34576      0.18278      
39400   0.45669    0.10544    0.13988    0.02107      0.17643      0.13881      0.03227      0.35291      0.18632      
39500   0.45691    0.10506    0.13937    0.02056      0.17863      0.13282      0.02781      0.34012      0.18302      
39600   0.46455    0.10487    0.13899    0.02087      0.18626      0.13562      0.02910      0.32617      0.18666      
39700   0.45432    0.10449    0.13853    0.02135      0.17613      0.13807      0.03005      0.33784      0.18906      
39800   0.45352    0.10377    0.13764    0.02196      0.17704      0.13106      0.02757      0.31501      0.17357      
39900   0.45998    0.10342    0.13735    0.02243      0.18367      0.13116      0.03478      0.33740      0.20057      
40000   0.45243    0.10322    0.13725    0.02185      0.17667      0.13445      0.03657      0.33553      0.18347      
40100   0.45137    0.10277    0.13676    0.02128      0.17739      0.13175      0.03501      0.31992      0.18339      
40200   0.45942    0.10260    0.13650    0.02202      0.18508      0.13219      0.03225      0.36558      0.16148      
40300   0.44984    0.10222    0.13605    0.02121      0.17726      0.13102      0.02655      0.31911      0.17364      
40400   0.44862    0.10199    0.13577    0.01983      0.17789      0.13145      0.02920      0.33467      0.16223      
40500   0.45760    0.10179    0.13573    0.02203      0.18488      0.13171      0.03119      0.33861      0.17094      
40600   0.44728    0.10155    0.13521    0.02105      0.17691      0.12564      0.03650      0.32131      0.16829      
40700   0.44651    0.10101    0.13455    0.02001      0.17798      0.12967      0.03377      0.35602      0.19358      
40800   0.45550    0.10090    0.13445    0.02240      0.18491      0.12839      0.03279      0.34296      0.17337      
40900   0.44580    0.10104    0.13424    0.02115      0.17588      0.13495      0.03460      0.33003      0.18676      
41000   0.44522    0.10123    0.13432    0.02098      0.17601      0.12674      0.03474      0.34421      0.17905      
41100   0.45341    0.10064    0.13371    0.02250      0.18354      0.13013      0.03221      0.34643      0.17568      
41200   0.44278    0.10018    0.13332    0.02022      0.17590      0.13157      0.03490      0.36094      0.16569      
41300   0.44167    0.10020    0.13325    0.01957      0.17582      0.12835      0.03920      0.37025      0.17133      
41400   0.45066    0.09979    0.13288    0.02163      0.18301      0.13358      0.03575      0.34852      0.17659      
41500   0.44059    0.09950    0.13257    0.02045      0.17505      0.13018      0.03860      0.33806      0.18492      
41600   0.44074    0.09936    0.13232    0.02000      0.17636      0.12699      0.03900      0.33011      0.17727      
41700   0.44883    0.09935    0.13231    0.02069      0.18328      0.13203      0.03274      0.33429      0.16770      
41800   0.43923    0.09936    0.13219    0.02082      0.17430      0.12559      0.03317      0.31945      0.15930      
41900   0.43962    0.09899    0.13173    0.01945      0.17657      0.12879      0.03510      0.31979      0.16539      
42000   0.44583    0.09849    0.13117    0.02147      0.18198      0.12722      0.03901      0.30447      0.16711      
42100   0.43772    0.09836    0.13083    0.02013      0.17552      0.12875      0.03283      0.30236      0.16252      
42200   0.43680    0.09763    0.13021    0.01989      0.17641      0.12658      0.03332      0.30366      0.16518      
42300   0.44388    0.09743    0.13004    0.02152      0.18215      0.12736      0.02822      0.33135      0.16962      
42400   0.43419    0.09705    0.12977    0.02045      0.17425      0.12676      0.03021      0.28065      0.15470      
42500   0.43565    0.09716    0.12987    0.02018      0.17543      0.13000      0.03217      0.30568      0.17968      
42600   0.44195    0.09722    0.12955    0.02114      0.18114      0.12896      0.02675      0.29800      0.16549      
42700   0.43382    0.09704    0.12947    0.02054      0.17334      0.13433      0.03229      0.30503      0.17089      
42800   0.43335    0.09676    0.12922    0.01971      0.17472      0.12942      0.03464      0.32597      0.18384      
42900   0.43951    0.09670    0.12905    0.02080      0.18008      0.12873      0.02940      0.31425      0.18995      
43000   0.43270    0.09629    0.12856    0.02003      0.17513      0.12689      0.03202      0.31897      0.18624      
43100   0.43170    0.09633    0.12867    0.01996      0.17434      0.12393      0.03412      0.31648      0.19084      
43200   0.43745    0.09618    0.12870    0.02114      0.17838      0.13057      0.02722      0.32397      0.19370      
43300   0.43067    0.09608    0.12829    0.01960      0.17390      0.12799      0.03123      0.29774      0.18684      
43400   0.42971    0.09586    0.12805    0.01925      0.17356      0.12997      0.03000      0.29325      0.18864      
43500   0.43733    0.09597    0.12805    0.02053      0.17992      0.12874      0.02873      0.30336      0.18349      
43600   0.42867    0.09615    0.12812    0.02030      0.17150      0.12603      0.03206      0.28700      0.19062      
43700   0.42972    0.09614    0.12819    0.01998      0.17251      0.12901      0.03326      0.30400      0.18041      
43800   0.43652    0.09576    0.12778    0.02048      0.17922      0.13268      0.03068      0.31018      0.17708      
43900   0.42810    0.09560    0.12736    0.01917      0.17281      0.13159      0.02768      0.29933      0.17765      
44000   0.42707    0.09540    0.12693    0.01883      0.17333      0.12576      0.03068      0.31122      0.18412      
44100   0.43562    0.09540    0.12694    0.02117      0.17933      0.12779      0.03340      0.32652      0.18146      
44200   0.42634    0.09543    0.12697    0.01906      0.17242      0.12459      0.03576      0.31595      0.18988      
44300   0.42648    0.09552    0.12691    0.01862      0.17294      0.12489      0.03449      0.31375      0.17983      
44400   0.43387    0.09516    0.12664    0.01937      0.18036      0.12338      0.02909      0.30647      0.18751      
44500   0.42601    0.09491    0.12611    0.02015      0.17241      0.12434      0.03311      0.30164      0.18533      
44600   0.42504    0.09481    0.12598    0.01968      0.17215      0.12423      0.03173      0.30312      0.18181      
44700   0.43178    0.09463    0.12583    0.02019      0.17855      0.12572      0.02748      0.30111      0.19310      
44800   0.42388    0.09447    0.12567    0.01967      0.17188      0.12191      0.02520      0.28872      0.18221      
44900   0.42281    0.09417    0.12542    0.01929      0.17155      0.12382      0.03127      0.29584      0.19417      
45000   0.43069    0.09409    0.12535    0.02078      0.17804      0.12442      0.02709      0.27828      0.18733      
45100   0.42255    0.09360    0.12489    0.01900      0.17300      0.12054      0.02573      0.30553      0.18124      
45200   0.42192    0.09333    0.12463    0.01962      0.17267      0.11673      0.02776      0.30933      0.18088      
45300   0.42879    0.09282    0.12412    0.02022      0.17919      0.12437      0.02299      0.28670      0.18662      
45400   0.41983    0.09240    0.12373    0.02020      0.17128      0.12220      0.02698      0.29186      0.18880      
45500   0.41949    0.09230    0.12352    0.01890      0.17253      0.12246      0.02511      0.30207      0.17897      
45600   0.42648    0.09205    0.12340    0.02042      0.17848      0.12127      0.02755      0.30253      0.17486      
45700   0.41832    0.09207    0.12326    0.02001      0.17054      0.12435      0.02877      0.30251      0.20026      
45800   0.41871    0.09167    0.12281    0.01975      0.17207      0.12414      0.03496      0.30530      0.19149      
45900   0.42451    0.09133    0.12258    0.02026      0.17777      0.12573      0.02998      0.31288      0.19378      
46000   0.41573    0.09083    0.12219    0.01944      0.17057      0.12685      0.03040      0.30150      0.18861      
46100   0.41668    0.09105    0.12234    0.01943      0.17139      0.12463      0.03364      0.30731      0.18304      
46200   0.42401    0.09063    0.12200    0.01942      0.17989      0.12058      0.03340      0.31404      0.19105      
46300   0.41378    0.09035    0.12168    0.01907      0.17067      0.12000      0.02856      0.31069      0.18037      
46400   0.41495    0.09026    0.12151    0.01957      0.17097      0.12644      0.03131      0.29402      0.17972      
46500   0.42224    0.09009    0.12107    0.01992      0.17881      0.12346      0.02725      0.30215      0.17705      
46600   0.41364    0.08991    0.12097    0.01896      0.17155      0.12253      0.03396      0.27258      0.17273      
46700   0.41307    0.08968    0.12081    0.01853      0.17150      0.12548      0.03007      0.30356      0.18096      
46800   0.42005    0.08937    0.12029    0.02001      0.17775      0.12632      0.03211      0.30850      0.18441      
46900   0.41070    0.08893    0.11971    0.01939      0.16991      0.12763      0.03699      0.29850      0.17720      
47000   0.40998    0.08881    0.11962    0.01888      0.17039      0.12271      0.03513      0.29216      0.18856      
47100   0.41726    0.08851    0.11926    0.01957      0.17725      0.12668      0.03094      0.28186      0.18612      
47200   0.40905    0.08844    0.11898    0.01867      0.17064      0.12331      0.02849      0.28750      0.19419      
47300   0.40786    0.08819    0.11865    0.01773      0.17063      0.12669      0.03093      0.30345      0.18368      
47400   0.41603    0.08817    0.11865    0.01916      0.17730      0.12753      0.03138      0.28867      0.17659      
47500   0.40718    0.08805    0.11830    0.01912      0.16930      0.12401      0.02937      0.28401      0.18675      
47600   0.40750    0.08796    0.11814    0.01873      0.17081      0.11858      0.03438      0.30439      0.16525      
47700   0.41330    0.08777    0.11793    0.01895      0.17642      0.12238      0.02976      0.29502      0.17346      
47800   0.40626    0.08777    0.11799    0.01868      0.16983      0.11980      0.03044      0.29261      0.17941      
47900   0.40662    0.08784    0.11788    0.01777      0.17081      0.12315      0.02839      0.30065      0.18210      
48000   0.41313    0.08765    0.11773    0.01890      0.17630      0.12546      0.02674      0.30347      0.18031      
48100   0.40592    0.08758    0.11768    0.01860      0.16984      0.12212      0.03098      0.30845      0.18164      
48200   0.40544    0.08747    0.11743    0.01819      0.17050      0.11846      0.03240      0.30817      0.18521      
48300   0.41215    0.08727    0.11730    0.01799      0.17767      0.11934      0.02745      0.30515      0.17291      
48400   0.40453    0.08720    0.11721    0.01843      0.16939      0.12299      0.02680      0.28439      0.16319      
48500   0.40471    0.08713    0.11690    0.01805      0.17057      0.12048      0.03265      0.29508      0.19358      
48600   0.41109    0.08713    0.11692    0.01874      0.17655      0.11749      0.02667      0.29772      0.17627      
48700   0.40381    0.08700    0.11665    0.01887      0.16968      0.11603      0.03142      0.28030      0.17778      
48800   0.40363    0.08698    0.11656    0.01821      0.16971      0.12179      0.02835      0.28900      0.17588      
48900   0.40967    0.08676    0.11639    0.01829      0.17610      0.12125      0.02392      0.27491      0.17978      
49000   0.40083    0.08621    0.11586    0.01873      0.16815      0.11876      0.02950      0.30325      0.17464      
49100   0.40043    0.08590    0.11550    0.01775      0.16945      0.11829      0.03195      0.28508      0.17277      
49200   0.40626    0.08561    0.11517    0.01810      0.17520      0.12177      0.03415      0.29261      0.18538      
49300   0.39916    0.08540    0.11503    0.01727      0.16921      0.12250      0.03065      0.29037      0.17581      
49400   0.39833    0.08494    0.11446    0.01738      0.16959      0.11951      0.03225      0.28471      0.18108      
49500   0.40641    0.08526    0.11487    0.01774      0.17639      0.12149      0.03131      0.27945      0.18306      
49600   0.39787    0.08487    0.11446    0.01774      0.16854      0.12264      0.03521      0.28538      0.17342      
49700   0.39748    0.08476    0.11420    0.01763      0.16900      0.11891      0.03467      0.28905      0.17167      
49800   0.40427    0.08448    0.11396    0.01820      0.17547      0.12163      0.03567      0.29437      0.18932      
49900   0.39570    0.08391    0.11350    0.01793      0.16820      0.12152      0.02913      0.27993      0.18423      
50000   0.39536    0.08414    0.11358    0.01657      0.16886      0.12200      0.03112      0.30878      0.16800      
50100   0.40255    0.08375    0.11322    0.01950      0.17420      0.11886      0.04023      0.29919      0.17363      
50200   0.39401    0.08388    0.11338    0.01768      0.16713      0.11939      0.03733      0.28765      0.17564      
50300   0.39501    0.08398    0.11323    0.01789      0.16787      0.12028      0.03335      0.29499      0.17596      
50400   0.40313    0.08388    0.11309    0.01867      0.17533      0.12159      0.02889      0.28421      0.16722      
50500   0.39386    0.08334    0.11270    0.01753      0.16824      0.12038      0.02940      0.28763      0.17084      
50600   0.39303    0.08334    0.11256    0.01701      0.16831      0.11805      0.03453      0.30494      0.17245      
50700   0.40074    0.08306    0.11228    0.01866      0.17447      0.12267      0.03077      0.28940      0.17230      
50800   0.39270    0.08298    0.11201    0.01746      0.16751      0.12731      0.03048      0.28068      0.16764      
50900   0.39272    0.08290    0.11199    0.01755      0.16817      0.12111      0.02831      0.29506      0.16905      
51000   0.40114    0.08272    0.11176    0.01804      0.17666      0.11963      0.03430      0.29607      0.16675      
51100   0.39211    0.08275    0.11164    0.01757      0.16801      0.12136      0.03574      0.30176      0.16563      
51200   0.39298    0.08281    0.11157    0.01782      0.16888      0.11899      0.02620      0.29181      0.16301      
51300   0.40032    0.08296    0.11164    0.01775      0.17560      0.12381      0.02743      0.29678      0.16482      
51400   0.39149    0.08271    0.11143    0.01724      0.16816      0.11942      0.03124      0.28450      0.16859      
51500   0.39143    0.08285    0.11169    0.01708      0.16812      0.11694      0.03398      0.29131      0.15185      
51600   0.39811    0.08253    0.11139    0.01783      0.17430      0.12056      0.02848      0.29301      0.15915      
51700   0.38985    0.08248    0.11130    0.01807      0.16629      0.11717      0.03102      0.27735      0.15836      
51800   0.39028    0.08247    0.11107    0.01697      0.16764      0.12129      0.02838      0.27516      0.15110      
51900   0.39818    0.08264    0.11126    0.01833      0.17353      0.12429      0.03222      0.28892      0.16417      
52000   0.38932    0.08262    0.11121    0.01767      0.16572      0.12091      0.02947      0.28218      0.16722      
52100   0.38980    0.08244    0.11107    0.01655      0.16732      0.12413      0.03372      0.29328      0.16652      
52200   0.39695    0.08220    0.11089    0.01759      0.17410      0.12176      0.03334      0.28821      0.16080      
52300   0.38862    0.08219    0.11073    0.01724      0.16632      0.12139      0.03384      0.30503      0.17640      
52400   0.38853    0.08213    0.11066    0.01686      0.16700      0.11887      0.02974      0.29819      0.15824      
52500   0.39657    0.08183    0.11043    0.01728      0.17480      0.12233      0.03369      0.30793      0.16631      
52600   0.38726    0.08207    0.11057    0.01696      0.16556      0.12106      0.03162      0.28257      0.16491      
52700   0.38698    0.08152    0.11018    0.01692      0.16642      0.11936      0.03228      0.29781      0.15768      
52800   0.39565    0.08141    0.10995    0.01788      0.17425      0.12158      0.02614      0.28335      0.16144      
52900   0.38593    0.08134    0.10987    0.01717      0.16538      0.12163      0.03178      0.28379      0.15469      
53000   0.38664    0.08117    0.10967    0.01764      0.16639      0.11759      0.02740      0.27099      0.15253      
53100   0.39517    0.08119    0.10953    0.01835      0.17362      0.12489      0.02293      0.28765      0.16822      
53200   0.38468    0.08083    0.10921    0.01703      0.16533      0.12278      0.02949      0.28808      0.15829      
53300   0.38571    0.08114    0.10935    0.01685      0.16642      0.11955      0.02497      0.29484      0.15247      
53400   0.39460    0.08101    0.10927    0.01784      0.17375      0.12741      0.02464      0.28536      0.14973      
53500   0.38516    0.08095    0.10928    0.01713      0.16575      0.12058      0.03064      0.28785      0.15632      
53600   0.38485    0.08075    0.10906    0.01693      0.16623      0.11875      0.02891      0.29154      0.16269      
53700   0.39354    0.08078    0.10877    0.01743      0.17385      0.12713      0.02809      0.27871      0.16828      
53800   0.38415    0.08051    0.10870    0.01762      0.16539      0.11931      0.02837      0.27566      0.16423      
53900   0.38378    0.08042    0.10844    0.01685      0.16579      0.12280      0.03254      0.27767      0.15606      
54000   0.39209    0.08074    0.10880    0.01694      0.17275      0.12850      0.02834      0.27430      0.15680      
54100   0.38245    0.08021    0.10829    0.01620      0.16568      0.12085      0.02845      0.26203      0.16698      
54200   0.38280    0.08024    0.10822    0.01603      0.16640      0.11920      0.03081      0.28071      0.15912      
54300   0.39087    0.08007    0.10799    0.01782      0.17310      0.11889      0.02644      0.28157      0.14927      
54400   0.38055    0.07982    0.10764    0.01701      0.16445      0.11639      0.02920      0.27020      0.16238      
54500   0.38153    0.07968    0.10752    0.01654      0.16586      0.11921      0.03015      0.29673      0.16845      
54600   0.38943    0.07954    0.10743    0.01732      0.17290      0.12240      0.03157      0.28861      0.16006      
54700   0.38027    0.07942    0.10741    0.01686      0.16499      0.11584      0.02854      0.29034      0.16554      
54800   0.38118    0.07927    0.10733    0.01715      0.16587      0.11559      0.03198      0.29475      0.15715      
54900   0.38723    0.07908    0.10694    0.01674      0.17250      0.11957      0.02560      0.29083      0.15669      
55000   0.37974    0.07901    0.10679    0.01667      0.16557      0.11698      0.02642      0.28920      0.16428      
55100   0.37965    0.07882    0.10671    0.01694      0.16558      0.11586      0.03053      0.27735      0.15213      
55200   0.38727    0.07871    0.10650    0.01714      0.17298      0.11946      0.02769      0.28842      0.15354      
55300   0.37852    0.07870    0.10637    0.01659      0.16497      0.11890      0.02747      0.28464      0.14321      
55400   0.37816    0.07861    0.10624    0.01639      0.16511      0.11803      0.02785      0.29851      0.15297      
55500   0.38583    0.07838    0.10611    0.01684      0.17251      0.11989      0.02575      0.29690      0.15950      
55600   0.37746    0.07821    0.10581    0.01707      0.16457      0.11796      0.02624      0.27506      0.14643      
55700   0.37682    0.07811    0.10568    0.01713      0.16458      0.11321      0.02597      0.29351      0.15170      
55800   0.38499    0.07792    0.10556    0.01726      0.17245      0.11807      0.02105      0.28939      0.14423      
55900   0.37545    0.07774    0.10536    0.01649      0.16423      0.11633      0.02686      0.28453      0.13358      
56000   0.37611    0.07790    0.10540    0.01636      0.16517      0.11275      0.02572      0.28066      0.14956      
56100   0.38395    0.07791    0.10529    0.01789      0.17134      0.11509      0.02585      0.29934      0.13672      
56200   0.37517    0.07769    0.10508    0.01617      0.16443      0.11805      0.02735      0.26919      0.13832      
56300   0.37567    0.07762    0.10518    0.01658      0.16484      0.11450      0.02405      0.27617      0.13890      
56400   0.38316    0.07762    0.10508    0.01726      0.17161      0.11590      0.02430      0.26668      0.13939      
56500   0.37496    0.07767    0.10508    0.01636      0.16451      0.11334      0.02183      0.26450      0.13624      
56600   0.37496    0.07750    0.10496    0.01701      0.16436      0.11128      0.02628      0.26987      0.13712      
56700   0.38201    0.07754    0.10495    0.01673      0.17109      0.11701      0.02158      0.26721      0.13602      
56800   0.37417    0.07751    0.10496    0.01632      0.16408      0.11297      0.02440      0.27459      0.14219      
56900   0.37450    0.07734    0.10487    0.01665      0.16480      0.10848      0.02324      0.25934      0.13713      
57000   0.38006    0.07734    0.10475    0.01698      0.16964      0.11353      0.02490      0.27689      0.14099      
57100   0.37313    0.07703    0.10449    0.01645      0.16335      0.11815      0.02339      0.26414      0.13932      
57200   0.37352    0.07713    0.10465    0.01630      0.16412      0.11322      0.02606      0.27456      0.14379      
57300   0.37970    0.07688    0.10426    0.01742      0.16967      0.11455      0.02905      0.29285      0.13713      
57400   0.37228    0.07665    0.10414    0.01636      0.16379      0.11350      0.02493      0.26962      0.15069      
57500   0.37233    0.07674    0.10415    0.01609      0.16416      0.11192      0.02890      0.27497      0.13948      
57600   0.37909    0.07650    0.10397    0.01676      0.17050      0.11366      0.02494      0.27732      0.13972      
57700   0.37062    0.07606    0.10348    0.01636      0.16308      0.11635      0.02433      0.25959      0.15552      
57800   0.37076    0.07598    0.10326    0.01634      0.16437      0.10816      0.02426      0.25256      0.13772      
57900   0.37749    0.07619    0.10332    0.01696      0.16970      0.11319      0.02128      0.27664      0.14230      
58000   0.36946    0.07602    0.10306    0.01614      0.16297      0.11267      0.02298      0.27167      0.13586      
58100   0.37057    0.07573    0.10296    0.01678      0.16411      0.10987      0.02469      0.25068      0.14024      
58200   0.37647    0.07561    0.10278    0.01682      0.16984      0.11420      0.02201      0.27534      0.14644      
58300   0.36845    0.07569    0.10284    0.01614      0.16267      0.11116      0.01938      0.26110      0.13757      
58400   0.37010    0.07573    0.10280    0.01666      0.16388      0.11026      0.02024      0.26566      0.14103      
58500   0.37559    0.07547    0.10273    0.01665      0.16952      0.11220      0.02204      0.26562      0.14273      
58600   0.36805    0.07508    0.10231    0.01663      0.16255      0.11487      0.02026      0.26692      0.13528      
58700   0.36913    0.07526    0.10246    0.01669      0.16364      0.11080      0.02229      0.26483      0.13475      
58800   0.37460    0.07507    0.10219    0.01652      0.16937      0.11447      0.02275      0.26985      0.13740      
58900   0.36635    0.07472    0.10198    0.01640      0.16214      0.11106      0.02190      0.27101      0.13895      
59000   0.36723    0.07453    0.10163    0.01658      0.16325      0.11241      0.02247      0.27381      0.13893      
59100   0.37340    0.07449    0.10158    0.01737      0.16876      0.11203      0.02852      0.27957      0.14477      
59200   0.36540    0.07441    0.10155    0.01605      0.16225      0.11145      0.02327      0.25920      0.15503      
59300   0.36583    0.07405    0.10116    0.01618      0.16345      0.10993      0.02599      0.26942      0.14983      
59400   0.37182    0.07394    0.10101    0.01688      0.16825      0.11753      0.02236      0.27320      0.14864      
59500   0.36436    0.07401    0.10103    0.01620      0.16173      0.11385      0.02078      0.27276      0.15427      
59600   0.36475    0.07387    0.10092    0.01537      0.16348      0.11109      0.02252      0.27798      0.14089      
59700   0.37077    0.07381    0.10083    0.01733      0.16773      0.11062      0.02101      0.28225      0.15193      
59800   0.36394    0.07390    0.10087    0.01635      0.16163      0.11182      0.02201      0.26837      0.14289      
59900   0.36463    0.07382    0.10077    0.01639      0.16287      0.10772      0.02057      0.26271      0.14887      
60000   0.37037    0.07375    0.10053    0.01684      0.16803      0.11211      0.01610      0.26606      0.15667      
60100   0.36295    0.07358    0.10034    0.01610      0.16171      0.11220      0.01842      0.25477      0.14673      
60200   0.36382    0.07344    0.10025    0.01629      0.16315      0.10701      0.01617      0.26137      0.16094      
60300   0.36898    0.07321    0.10000    0.01631      0.16824      0.11219      0.02080      0.26996      0.15446      
60400   0.36140    0.07297    0.09979    0.01597      0.16140      0.11266      0.02110      0.26233      0.15495      
60500   0.36237    0.07274    0.09973    0.01572      0.16312      0.11053      0.01911      0.27672      0.15736      
60600   0.36824    0.07284    0.09975    0.01624      0.16809      0.11320      0.02314      0.25465      0.15691      
60700   0.36004    0.07250    0.09943    0.01570      0.16127      0.11150      0.02458      0.26874      0.16035      
60800   0.36100    0.07229    0.09935    0.01534      0.16283      0.11195      0.02244      0.28257      0.15656      
60900   0.36788    0.07231    0.09935    0.01711      0.16782      0.11292      0.02009      0.28146      0.17157      
61000   0.35943    0.07212    0.09918    0.01594      0.16110      0.11086      0.02129      0.26985      0.15970      
61100   0.36054    0.07216    0.09908    0.01536      0.16291      0.11029      0.02323      0.28750      0.16298      
61200   0.36662    0.07207    0.09898    0.01612      0.16775      0.11690      0.02173      0.27553      0.16012      
[...]
383800  0.24297    0.03017    0.05625    0.00878      0.13939      0.08375      0.01972      0.21432      0.14621      
383900  0.24673    0.03016    0.05625    0.00925      0.14272      0.08343      0.01940      0.21417      0.14624      
384000  0.25198    0.03017    0.05625    0.01085      0.14608      0.08616      0.02017      0.21472      0.14501      
384100  0.24300    0.03017    0.05625    0.00883      0.13937      0.08382      0.01962      0.21426      0.14552      
384200  0.24667    0.03016    0.05625    0.00925      0.14266      0.08341      0.01963      0.21453      0.14553      
384300  0.25197    0.03016    0.05625    0.01087      0.14607      0.08628      0.02050      0.21488      0.14376      
384400  0.24298    0.03017    0.05625    0.00882      0.13937      0.08375      0.01978      0.21388      0.14401      
384500  0.24670    0.03016    0.05625    0.00928      0.14266      0.08338      0.01959      0.21378      0.14585      
384600  0.25195    0.03016    0.05625    0.01083      0.14606      0.08644      0.02009      0.21443      0.14521      
384700  0.24299    0.03017    0.05625    0.00883      0.13935      0.08386      0.01981      0.21404      0.14568      
384800  0.24667    0.03016    0.05625    0.00929      0.14264      0.08318      0.01961      0.21390      0.14656      
384900  0.25194    0.03016    0.05625    0.01088      0.14607      0.08587      0.02031      0.21473      0.14543      
385000  0.24301    0.03016    0.05624    0.00888      0.13937      0.08359      0.01994      0.21401      0.14586      
385100  0.24660    0.03014    0.05624    0.00919      0.14270      0.08322      0.01933      0.21446      0.14767      
385200  0.25200    0.03015    0.05624    0.01083      0.14613      0.08659      0.01972      0.21420      0.14519      
385300  0.24298    0.03015    0.05624    0.00884      0.13937      0.08381      0.01979      0.21380      0.14463      
385400  0.24659    0.03015    0.05624    0.00916      0.14270      0.08342      0.01921      0.21458      0.14615      
385500  0.25194    0.03014    0.05624    0.01085      0.14608      0.08629      0.02006      0.21501      0.14454      
385600  0.24296    0.03014    0.05623    0.00881      0.13940      0.08389      0.01967      0.21491      0.14580      
385700  0.24665    0.03015    0.05623    0.00926      0.14268      0.08330      0.01923      0.21467      0.14609      
385800  0.25197    0.03015    0.05623    0.01082      0.14611      0.08670      0.01962      0.21555      0.14462      
385900  0.24296    0.03016    0.05623    0.00881      0.13936      0.08400      0.01956      0.21509      0.14584      
386000  0.24662    0.03016    0.05623    0.00925      0.14263      0.08347      0.01928      0.21525      0.14679      
386100  0.25197    0.03015    0.05623    0.01081      0.14611      0.08672      0.01950      0.21471      0.14430      
386200  0.24297    0.03016    0.05623    0.00876      0.13943      0.08395      0.01946      0.21495      0.14383      
386300  0.24662    0.03015    0.05623    0.00919      0.14268      0.08362      0.01864      0.21405      0.14671      
386400  0.25200    0.03016    0.05623    0.01086      0.14612      0.08625      0.01973      0.21419      0.14316      
386500  0.24291    0.03016    0.05623    0.00876      0.13935      0.08411      0.01932      0.21525      0.14365      
386600  0.24664    0.03015    0.05623    0.00923      0.14271      0.08318      0.01913      0.21485      0.14500      
386700  0.25199    0.03016    0.05623    0.01084      0.14612      0.08641      0.01964      0.21472      0.14365      
386800  0.24298    0.03016    0.05623    0.00885      0.13932      0.08415      0.01953      0.21455      0.14422      
386900  0.24666    0.03016    0.05623    0.00926      0.14267      0.08334      0.01909      0.21385      0.14486      
387000  0.25200    0.03016    0.05623    0.01088      0.14614      0.08591      0.01989      0.21474      0.14474      
387100  0.24295    0.03016    0.05623    0.00889      0.13930      0.08371      0.01956      0.21522      0.14382      
387200  0.24663    0.03017    0.05623    0.00931      0.14261      0.08311      0.01938      0.21456      0.14344      
387300  0.25196    0.03017    0.05623    0.01079      0.14615      0.08625      0.01943      0.21463      0.14190      
387400  0.24288    0.03017    0.05623    0.00881      0.13928      0.08393      0.01944      0.21377      0.14202      
387500  0.24663    0.03016    0.05623    0.00927      0.14265      0.08320      0.01942      0.21378      0.14210      
387600  0.25193    0.03016    0.05623    0.01085      0.14607      0.08637      0.01970      0.21406      0.14253      
387700  0.24289    0.03016    0.05623    0.00882      0.13933      0.08367      0.01977      0.21428      0.14277      
387800  0.24660    0.03016    0.05622    0.00924      0.14264      0.08346      0.01924      0.21446      0.14356      
387900  0.25194    0.03016    0.05622    0.01079      0.14611      0.08658      0.01994      0.21436      0.14177      
388000  0.24287    0.03016    0.05622    0.00881      0.13928      0.08404      0.01963      0.21375      0.14245      
388100  0.24657    0.03016    0.05622    0.00919      0.14265      0.08358      0.01920      0.21410      0.14258      
388200  0.25198    0.03016    0.05622    0.01081      0.14614      0.08651      0.01959      0.21473      0.14137      
388300  0.24283    0.03016    0.05622    0.00873      0.13931      0.08415      0.01957      0.21415      0.14087      
388400  0.24656    0.03015    0.05622    0.00917      0.14268      0.08344      0.01920      0.21430      0.14299      
388500  0.25200    0.03016    0.05622    0.01086      0.14612      0.08649      0.01978      0.21403      0.14195      
388600  0.24286    0.03016    0.05621    0.00879      0.13927      0.08419      0.01950      0.21374      0.14170      
388700  0.24657    0.03016    0.05621    0.00923      0.14263      0.08337      0.01908      0.21447      0.14358      
388800  0.25197    0.03015    0.05621    0.01082      0.14613      0.08660      0.01953      0.21369      0.14175      
388900  0.24287    0.03016    0.05622    0.00874      0.13934      0.08401      0.01897      0.21455      0.14235      
389000  0.24653    0.03016    0.05622    0.00922      0.14261      0.08308      0.01897      0.21322      0.14348      
389100  0.25199    0.03016    0.05622    0.01084      0.14612      0.08660      0.01958      0.21323      0.14293      
389200  0.24284    0.03015    0.05622    0.00877      0.13936      0.08341      0.01956      0.21353      0.14250      
389300  0.24655    0.03015    0.05622    0.00921      0.14265      0.08321      0.01932      0.21267      0.14479      
389400  0.25193    0.03015    0.05621    0.01084      0.14611      0.08623      0.01943      0.21418      0.14231      
389500  0.24285    0.03015    0.05621    0.00884      0.13931      0.08345      0.01934      0.21371      0.14198      
389600  0.24654    0.03015    0.05621    0.00922      0.14264      0.08321      0.01878      0.21364      0.14445      
389700  0.25197    0.03016    0.05621    0.01088      0.14608      0.08630      0.01976      0.21380      0.14403      
389800  0.24285    0.03015    0.05621    0.00884      0.13933      0.08320      0.01959      0.21393      0.14254      
389900  0.24660    0.03014    0.05621    0.00919      0.14272      0.08330      0.01860      0.21402      0.14430      
390000  0.25200    0.03015    0.05621    0.01081      0.14619      0.08647      0.01940      0.21440      0.14346      
390100  0.24283    0.03015    0.05621    0.00873      0.13936      0.08372      0.01948      0.21534      0.14356      
390200  0.24660    0.03014    0.05620    0.00924      0.14268      0.08342      0.01900      0.21489      0.14620      
390300  0.25203    0.03015    0.05621    0.01084      0.14621      0.08623      0.01966      0.21385      0.14359      
390400  0.24282    0.03014    0.05621    0.00877      0.13933      0.08370      0.01985      0.21428      0.14286      
390500  0.24654    0.03015    0.05621    0.00921      0.14263      0.08347      0.01905      0.21439      0.14416      
390600  0.25200    0.03015    0.05621    0.01083      0.14614      0.08681      0.01976      0.21463      0.14286      
390700  0.24282    0.03015    0.05620    0.00879      0.13929      0.08386      0.01951      0.21379      0.14325      
390800  0.24653    0.03015    0.05620    0.00918      0.14266      0.08330      0.01919      0.21406      0.14402      
390900  0.25196    0.03014    0.05620    0.01085      0.14615      0.08605      0.02009      0.21449      0.14258      
391000  0.24281    0.03013    0.05620    0.00882      0.13928      0.08374      0.01944      0.21399      0.14228      
391100  0.24653    0.03012    0.05620    0.00923      0.14265      0.08327      0.01932      0.21369      0.14340      
391200  0.25200    0.03014    0.05620    0.01088      0.14611      0.08664      0.01930      0.21499      0.14308      
391300  0.24280    0.03014    0.05620    0.00880      0.13929      0.08363      0.01942      0.21461      0.14233      
391400  0.24654    0.03014    0.05620    0.00925      0.14264      0.08316      0.01917      0.21475      0.14281      
391500  0.25195    0.03013    0.05619    0.01086      0.14613      0.08646      0.01974      0.21427      0.14212      
391600  0.24281    0.03013    0.05619    0.00887      0.13926      0.08354      0.01966      0.21485      0.14197      
391700  0.24647    0.03013    0.05620    0.00920      0.14260      0.08329      0.01891      0.21452      0.14136      
391800  0.25191    0.03013    0.05619    0.01084      0.14610      0.08638      0.01978      0.21519      0.14044      
391900  0.24280    0.03013    0.05620    0.00879      0.13931      0.08370      0.01936      0.21469      0.14117      
392000  0.24648    0.03013    0.05620    0.00923      0.14261      0.08323      0.01903      0.21516      0.14163      
392100  0.25193    0.03013    0.05620    0.01089      0.14608      0.08638      0.01958      0.21490      0.13930      
392200  0.24277    0.03013    0.05620    0.00877      0.13929      0.08380      0.01900      0.21476      0.14031      
392300  0.24650    0.03013    0.05619    0.00917      0.14265      0.08351      0.01852      0.21476      0.14156      
392400  0.25185    0.03012    0.05619    0.01085      0.14606      0.08625      0.01916      0.21512      0.13910      
392500  0.24272    0.03011    0.05619    0.00875      0.13930      0.08360      0.01893      0.21511      0.13990      
392600  0.24654    0.03011    0.05619    0.00927      0.14262      0.08352      0.01868      0.21584      0.14036      
392700  0.25191    0.03011    0.05618    0.01083      0.14618      0.08610      0.01953      0.21592      0.14104      
392800  0.24271    0.03012    0.05619    0.00873      0.13932      0.08360      0.01945      0.21553      0.14325      
392900  0.24647    0.03011    0.05619    0.00915      0.14269      0.08331      0.01918      0.21606      0.14412      
393000  0.25193    0.03011    0.05619    0.01087      0.14615      0.08614      0.01958      0.21563      0.14205      
393100  0.24280    0.03012    0.05619    0.00880      0.13933      0.08363      0.01930      0.21605      0.14238      
393200  0.24647    0.03011    0.05618    0.00919      0.14266      0.08338      0.01893      0.21575      0.14281      
393300  0.25193    0.03010    0.05618    0.01091      0.14611      0.08617      0.01972      0.21538      0.14005      
393400  0.24274    0.03010    0.05618    0.00878      0.13929      0.08386      0.01952      0.21551      0.14077      
393500  0.24650    0.03009    0.05618    0.00920      0.14269      0.08338      0.01898      0.21589      0.14191      
393600  0.25183    0.03010    0.05618    0.01083      0.14609      0.08632      0.01966      0.21504      0.14326      
393700  0.24274    0.03011    0.05618    0.00876      0.13932      0.08383      0.01928      0.21506      0.14330      
393800  0.24650    0.03010    0.05618    0.00917      0.14272      0.08334      0.01882      0.21492      0.14457      
393900  0.25176    0.03010    0.05617    0.01084      0.14604      0.08613      0.01983      0.21566      0.14372      
394000  0.24279    0.03011    0.05617    0.00877      0.13936      0.08375      0.01946      0.21527      0.14396      
394100  0.24647    0.03010    0.05618    0.00919      0.14264      0.08361      0.01899      0.21515      0.14579      
394200  0.25183    0.03010    0.05617    0.01081      0.14608      0.08655      0.01955      0.21487      0.14346      
394300  0.24276    0.03011    0.05618    0.00875      0.13932      0.08408      0.01936      0.21438      0.14521      
394400  0.24647    0.03010    0.05617    0.00919      0.14265      0.08360      0.01878      0.21502      0.14573      
394500  0.25180    0.03010    0.05617    0.01087      0.14606      0.08588      0.01934      0.21539      0.14380      
394600  0.24276    0.03011    0.05618    0.00874      0.13935      0.08388      0.01910      0.21457      0.14460      
394700  0.24643    0.03010    0.05617    0.00923      0.14259      0.08335      0.01887      0.21479      0.14444      
394800  0.25183    0.03010    0.05617    0.01083      0.14610      0.08628      0.01943      0.21491      0.14388      
394900  0.24277    0.03011    0.05617    0.00882      0.13930      0.08366      0.01936      0.21369      0.14378      
395000  0.24642    0.03011    0.05617    0.00919      0.14263      0.08310      0.01910      0.21459      0.14571      
395100  0.25183    0.03011    0.05617    0.01085      0.14609      0.08608      0.01960      0.21446      0.14313      
395200  0.24274    0.03010    0.05617    0.00877      0.13930      0.08393      0.01945      0.21441      0.14375      
395300  0.24638    0.03011    0.05617    0.00916      0.14265      0.08293      0.01905      0.21480      0.14459      
395400  0.25188    0.03012    0.05618    0.01086      0.14612      0.08615      0.01962      0.21396      0.14296      
395500  0.24276    0.03011    0.05617    0.00876      0.13934      0.08378      0.01925      0.21436      0.14387      
395600  0.24640    0.03010    0.05617    0.00915      0.14266      0.08315      0.01900      0.21401      0.14511      
395700  0.25184    0.03009    0.05617    0.01086      0.14609      0.08630      0.01958      0.21425      0.14363      
395800  0.24273    0.03009    0.05617    0.00878      0.13932      0.08375      0.01931      0.21416      0.14262      
395900  0.24639    0.03008    0.05616    0.00921      0.14263      0.08308      0.01899      0.21379      0.14391      
396000  0.25181    0.03008    0.05616    0.01086      0.14608      0.08621      0.01955      0.21382      0.14257      
396100  0.24269    0.03008    0.05616    0.00881      0.13924      0.08387      0.01932      0.21319      0.14269      
396200  0.24636    0.03007    0.05616    0.00918      0.14263      0.08309      0.01886      0.21374      0.14433      
396300  0.25178    0.03007    0.05616    0.01091      0.14603      0.08614      0.01954      0.21437      0.14259      
396400  0.24269    0.03007    0.05616    0.00885      0.13925      0.08376      0.01938      0.21374      0.14398      
396500  0.24635    0.03007    0.05616    0.00920      0.14260      0.08317      0.01862      0.21393      0.14548      
396600  0.25173    0.03008    0.05616    0.01076      0.14612      0.08605      0.01932      0.21439      0.14357      
396700  0.24267    0.03007    0.05616    0.00874      0.13932      0.08379      0.01883      0.21366      0.14575      
396800  0.24634    0.03006    0.05616    0.00912      0.14265      0.08345      0.01868      0.21440      0.14487      
396900  0.25173    0.03007    0.05616    0.01080      0.14606      0.08656      0.01942      0.21403      0.14388      
397000  0.24267    0.03006    0.05616    0.00876      0.13930      0.08384      0.01919      0.21416      0.14477      
397100  0.24636    0.03006    0.05616    0.00918      0.14263      0.08338      0.01899      0.21532      0.14468      
397200  0.25171    0.03006    0.05615    0.01087      0.14604      0.08582      0.01947      0.21476      0.14299      
397300  0.24269    0.03008    0.05616    0.00875      0.13936      0.08348      0.01914      0.21483      0.14381      
397400  0.24635    0.03008    0.05616    0.00919      0.14261      0.08298      0.01859      0.21477      0.14629      
397500  0.25176    0.03007    0.05616    0.01083      0.14608      0.08619      0.01902      0.21433      0.14275      
397600  0.24265    0.03008    0.05616    0.00874      0.13932      0.08342      0.01919      0.21478      0.14397      
397700  0.24640    0.03008    0.05616    0.00921      0.14267      0.08284      0.01906      0.21504      0.14587      
397800  0.25177    0.03008    0.05616    0.01079      0.14610      0.08639      0.01935      0.21474      0.14438      
397900  0.24272    0.03007    0.05615    0.00886      0.13928      0.08344      0.01969      0.21491      0.14374      
398000  0.24635    0.03007    0.05616    0.00920      0.14261      0.08311      0.01909      0.21490      0.14635      
398100  0.25170    0.03007    0.05616    0.01083      0.14604      0.08603      0.01965      0.21590      0.14580      
398200  0.24271    0.03007    0.05616    0.00877      0.13935      0.08362      0.01940      0.21618      0.14644      
398300  0.24633    0.03007    0.05616    0.00926      0.14254      0.08303      0.01876      0.21529      0.14597      
398400  0.25164    0.03007    0.05615    0.01081      0.14603      0.08579      0.01947      0.21532      0.14492      
398500  0.24272    0.03006    0.05615    0.00882      0.13935      0.08340      0.01924      0.21532      0.14566      
398600  0.24629    0.03006    0.05615    0.00920      0.14259      0.08291      0.01890      0.21519      0.14556      
398700  0.25169    0.03006    0.05615    0.01082      0.14605      0.08603      0.01941      0.21528      0.14406      
398800  0.24270    0.03006    0.05615    0.00884      0.13930      0.08350      0.01921      0.21429      0.14363      
398900  0.24628    0.03006    0.05615    0.00918      0.14259      0.08292      0.01907      0.21497      0.14595      
399000  0.25162    0.03006    0.05615    0.01086      0.14595      0.08605      0.01990      0.21475      0.14413      
399100  0.24267    0.03006    0.05615    0.00880      0.13928      0.08368      0.01943      0.21448      0.14576      
399200  0.24634    0.03006    0.05615    0.00918      0.14262      0.08330      0.01897      0.21409      0.14857      
399300  0.25163    0.03007    0.05615    0.01082      0.14598      0.08622      0.01946      0.21449      0.14659      
399400  0.24267    0.03006    0.05614    0.00883      0.13929      0.08354      0.01932      0.21511      0.14518      
399500  0.24627    0.03005    0.05614    0.00925      0.14255      0.08282      0.01878      0.21509      0.14599      
399600  0.25166    0.03005    0.05614    0.01088      0.14600      0.08597      0.01958      0.21528      0.14537      
399700  0.24266    0.03004    0.05614    0.00878      0.13933      0.08371      0.01920      0.21509      0.14484      
399800  0.24632    0.03005    0.05614    0.00923      0.14260      0.08298      0.01873      0.21496      0.14638      
399900  0.25163    0.03005    0.05614    0.01077      0.14604      0.08629      0.01931      0.21532      0.14471      
400000  0.24268    0.03005    0.05614    0.00878      0.13933      0.08380      0.01895      0.21569      0.14559      

---------------------------------------------------------------
Time used for training = 97928.710430 s.
---------------------------------------------------------------


---------------------------------------------------------------
Finished running nep.
---------------------------------------------------------------

