
***************************************************************
*                 Welcome to use GPUMD                        *
*    (Graphics Processing Units Molecular Dynamics)           *
*                     version 5.3                             *
*              This is the nep executable                     *
***************************************************************


---------------------------------------------------------------
GPU information:
---------------------------------------------------------------

number of GPUs = 1
Device id:                   0
    Device name:             NVIDIA GeForce RTX 3090
    Compute capability:      8.6
    Amount of global memory: 23.6843 GB
    Number of SMs:           82

---------------------------------------------------------------
Started running nep.
---------------------------------------------------------------


---------------------------------------------------------------
Started reading nep.in.
---------------------------------------------------------------

Input or default parameters:
    (default) model_type = potential.
    (default) calculation mode = train.
    (input)   use NEP version 4.
    (input)   number of atom types = 2.
        type 0 (Si with Z = 14) has cutoffs (8 A, 4 A).
        type 1 (Ti with Z = 22) has cutoffs (8 A, 4 A).
    (default) will not add the ZBL potential.
    (input)   n_max_radial = 6.
    (input)   n_max_angular = 6.
    (input)   basis_size_radial = 6.
    (input)   basis_size_angular = 6.
    (input)   l_max_3body = 4.
    (input)   has_q_222 = 1.
    (input)   has_q_1111 = 0.
    (input)   has_q_112 = 0.
    (input)   has_q_123 = 0.
    (input)   has_q_233 = 0.
    (input)   has_q_134 = 0.
    (input)   number of neurons = 30.
    (default) lambda_1 = 0.0389423.
    (default) lambda_2 = 0.0389423.
    (input)   lambda_e = 1.
    (input)   lambda_f = 1.
    (input)   lambda_v = 0.1.
    (default) atomic_v = 0.
    (default) lambda_shear = 1.
    (default) force_delta = 0.
    (input)   batch size = 1000.
    (input)   population size = 50.
    (input)   maximum number of generations = 200000.
    (default) save potential every N = 100000 generations.
Some calculated parameters:
    number of radial descriptor components = 7.
    number of angular descriptor components = 35.
    total number of descriptor components = 42.
    NN architecture = 42-30-1.
    number of NN parameters to be optimized = 2641.
    number of descriptor parameters to be optimized = 392.
    total number of parameters to be optimized = 3033.

---------------------------------------------------------------
Finished reading nep.in.
---------------------------------------------------------------


---------------------------------------------------------------
Started reading train.xyz
---------------------------------------------------------------

Number of configurations = 2232.
Number of devices = 1
Number of batches = 3
Hello, I changed the batch_size from 1000 to 744.

Batch 0:
Number of configurations = 744.

---------------------------------------------------------------
Constructing train_set in device  0.
Total number of atoms = 20652.
Number of atoms in the largest configuration = 96.
Number of configurations having virial = 744.
Radial descriptor with a cutoff of 8 A:
    Minimum number of neighbors for one atom = 53.
    Maximum number of neighbors for one atom = 161.
    Average number of neighbors for one atom = 114.715.
Angular descriptor with a cutoff of 4 A:
    Minimum number of neighbors for one atom = 4.
    Maximum number of neighbors for one atom = 24.
    Average number of neighbors for one atom = 14.0759.
---------------------------------------------------------------


Batch 1:
Number of configurations = 744.

---------------------------------------------------------------
Constructing train_set in device  0.
Total number of atoms = 21115.
Number of atoms in the largest configuration = 96.
Number of configurations having virial = 744.
Radial descriptor with a cutoff of 8 A:
    Minimum number of neighbors for one atom = 51.
    Maximum number of neighbors for one atom = 161.
    Average number of neighbors for one atom = 114.393.
Angular descriptor with a cutoff of 4 A:
    Minimum number of neighbors for one atom = 3.
    Maximum number of neighbors for one atom = 22.
    Average number of neighbors for one atom = 14.0398.
---------------------------------------------------------------


Batch 2:
Number of configurations = 744.

---------------------------------------------------------------
Constructing train_set in device  0.
Total number of atoms = 20309.
Number of atoms in the largest configuration = 96.
Number of configurations having virial = 744.
Radial descriptor with a cutoff of 8 A:
    Minimum number of neighbors for one atom = 57.
    Maximum number of neighbors for one atom = 161.
    Average number of neighbors for one atom = 114.476.
Angular descriptor with a cutoff of 4 A:
    Minimum number of neighbors for one atom = 4.
    Maximum number of neighbors for one atom = 23.
    Average number of neighbors for one atom = 14.0538.
---------------------------------------------------------------


---------------------------------------------------------------
Started reading test.xyz
---------------------------------------------------------------

Number of configurations = 20.

---------------------------------------------------------------
Constructing test_set in device  0.
Total number of atoms = 594.
Number of atoms in the largest configuration = 72.
Number of configurations having virial = 20.
Radial descriptor with a cutoff of 8 A:
    Minimum number of neighbors for one atom = 83.
    Maximum number of neighbors for one atom = 147.
    Average number of neighbors for one atom = 104.603.
Angular descriptor with a cutoff of 4 A:
    Minimum number of neighbors for one atom = 7.
    Maximum number of neighbors for one atom = 22.
    Average number of neighbors for one atom = 13.2626.
---------------------------------------------------------------


---------------------------------------------------------------
Time used for initialization = 0.757292 s.
---------------------------------------------------------------


---------------------------------------------------------------
Started training.
---------------------------------------------------------------

Step    Total-Loss L1Reg-Loss L2Reg-Loss RMSE-E-Train RMSE-F-Train RMSE-V-Train RMSE-E-Test  RMSE-F-Test  RMSE-V-Test  
100     1.60500    0.02063    0.02458    0.18106      1.32202      0.56713      0.20595      2.40320      0.55379      
200     0.72957    0.02195    0.02641    0.11924      0.50310      0.58867      0.17298      0.69923      0.43865      
300     1.25226    0.02314    0.02801    0.13003      1.02562      0.45457      0.20211      0.62843      0.49614      
400     0.67992    0.02419    0.02948    0.14300      0.43853      0.44729      0.22173      0.55861      0.37420      
500     0.56781    0.02541    0.03109    0.09679      0.38393      0.30583      0.18498      0.46645      0.34527      
600     0.86551    0.02599    0.03212    0.10911      0.67006      0.28227      0.12615      0.51921      0.24970      
700     0.58641    0.02696    0.03330    0.09870      0.38992      0.37524      0.13262      0.47217      0.29617      
800     0.55663    0.02793    0.03464    0.11098      0.35243      0.30652      0.11016      0.49569      0.23169      
900     0.63977    0.02857    0.03576    0.11217      0.42898      0.34290      0.12683      0.42638      0.22763      
1000    0.51901    0.02933    0.03676    0.09158      0.32827      0.33066      0.12534      0.36707      0.30415      
1100    0.49801    0.02995    0.03762    0.07410      0.33056      0.25773      0.11353      0.40093      0.24625      
1200    0.56211    0.03107    0.03885    0.09815      0.36654      0.27493      0.14967      0.49565      0.32457      
1300    0.51880    0.03161    0.03979    0.11854      0.29724      0.31618      0.13691      0.39863      0.27554      
1400    0.49679    0.03262    0.04105    0.07407      0.31578      0.33271      0.10130      0.38351      0.23572      
1500    0.52103    0.03309    0.04160    0.07621      0.34356      0.26564      0.06950      0.39415      0.17288      
1600    0.49229    0.03402    0.04288    0.08033      0.30770      0.27370      0.08990      0.37448      0.20412      
1700    0.49008    0.03469    0.04399    0.07928      0.30055      0.31566      0.10730      0.40972      0.30335      
1800    0.49190    0.03525    0.04485    0.06919      0.31759      0.25010      0.08237      0.38520      0.18296      
1900    0.51595    0.03605    0.04586    0.09810      0.30273      0.33212      0.13405      0.40895      0.32233      
2000    0.49782    0.03664    0.04673    0.08885      0.29647      0.29140      0.13291      0.40614      0.21042      
2100    0.52176    0.03702    0.04728    0.07020      0.33323      0.34029      0.09952      0.39774      0.23448      
2200    0.49867    0.03769    0.04809    0.08127      0.30254      0.29082      0.09871      0.39281      0.20207      
2300    0.51454    0.03857    0.04903    0.10235      0.29717      0.27416      0.10795      0.38596      0.21314      
2400    0.49213    0.03855    0.04928    0.06220      0.31353      0.28571      0.08694      0.33480      0.17791      
2500    0.49249    0.03919    0.05015    0.08614      0.28583      0.31171      0.13260      0.34956      0.21807      
2600    0.48212    0.03986    0.05088    0.07229      0.28494      0.34144      0.08989      0.41643      0.31186      
2700    0.51722    0.04023    0.05158    0.08648      0.30980      0.29124      0.10233      0.36285      0.29219      
2800    0.48811    0.04074    0.05228    0.06813      0.29444      0.32519      0.07397      0.39117      0.33341      
2900    0.48118    0.04107    0.05274    0.08316      0.27883      0.25385      0.13188      0.39201      0.26595      
3000    0.47847    0.04172    0.05373    0.06870      0.28876      0.25568      0.09543      0.32088      0.19474      
3100    0.46433    0.04199    0.05436    0.06496      0.27377      0.29239      0.08363      0.34218      0.20579      
3200    0.45868    0.04253    0.05497    0.06792      0.26890      0.24360      0.07626      0.33499      0.20785      
3300    0.48158    0.04298    0.05576    0.05777      0.30190      0.23156      0.08271      0.35610      0.21556      
3400    0.46239    0.04334    0.05641    0.07353      0.26340      0.25715      0.11280      0.32409      0.20895      
3500    0.46517    0.04392    0.05723    0.06658      0.27380      0.23643      0.06856      0.32238      0.19330      
3600    0.47917    0.04406    0.05778    0.05997      0.28938      0.27970      0.04056      0.35174      0.20674      
3700    0.45206    0.04460    0.05850    0.07364      0.25479      0.20541      0.05974      0.31291      0.18580      
3800    0.43973    0.04525    0.05916    0.06082      0.25232      0.22172      0.07457      0.31574      0.17529      
3900    0.47274    0.04591    0.06035    0.05045      0.28765      0.28375      0.06226      0.40292      0.29624      
4000    0.44403    0.04633    0.06079    0.05284      0.26101      0.23058      0.04695      0.30522      0.24167      
4100    0.44785    0.04675    0.06134    0.06730      0.25123      0.21227      0.07320      0.30856      0.21826      
4200    0.47702    0.04689    0.06152    0.07071      0.27469      0.23216      0.04008      0.34345      0.22943      
4300    0.45046    0.04735    0.06199    0.05962      0.25765      0.23838      0.06282      0.32161      0.21720      
4400    0.45259    0.04772    0.06248    0.06425      0.25558      0.22557      0.05177      0.34169      0.22638      
4500    0.46634    0.04825    0.06336    0.06122      0.26784      0.25670      0.05289      0.32025      0.23820      
4600    0.44916    0.04890    0.06442    0.05699      0.25529      0.23565      0.04449      0.36111      0.17038      
4700    0.44481    0.04906    0.06443    0.05875      0.25086      0.21716      0.05031      0.32462      0.19047      
4800    0.45356    0.04942    0.06514    0.05276      0.26392      0.22317      0.04418      0.31649      0.17155      
4900    0.43497    0.04980    0.06562    0.04527      0.25003      0.24263      0.03389      0.35543      0.21453      
5000    0.43478    0.05031    0.06629    0.04354      0.24829      0.26343      0.03005      0.31243      0.23397      
5100    0.46327    0.05064    0.06679    0.05300      0.27113      0.21704      0.04158      0.32647      0.23843      
5200    0.43980    0.05145    0.06782    0.04684      0.25047      0.23209      0.05132      0.32710      0.20194      
5300    0.44099    0.05201    0.06845    0.05253      0.24457      0.23430      0.05071      0.33390      0.27125      
5400    0.44529    0.05188    0.06848    0.04397      0.25756      0.23390      0.04463      0.32137      0.22575      
5500    0.43479    0.05241    0.06938    0.05311      0.23950      0.20393      0.05179      0.29439      0.23992      
5600    0.43802    0.05257    0.06956    0.05080      0.24475      0.20340      0.05841      0.30356      0.18283      
5700    0.44925    0.05288    0.07005    0.04581      0.25738      0.23148      0.05609      0.31721      0.22542      
5800    0.43945    0.05349    0.07076    0.04392      0.24946      0.21829      0.05067      0.32711      0.19956      
5900    0.44051    0.05398    0.07144    0.05138      0.23922      0.24485      0.06250      0.33782      0.20290      
6000    0.43683    0.05411    0.07179    0.04395      0.24634      0.20643      0.05796      0.31006      0.23059      
6100    0.43240    0.05438    0.07259    0.04058      0.24394      0.20912      0.04906      0.28562      0.23166      
6200    0.42044    0.05475    0.07286    0.04427      0.22952      0.19045      0.05514      0.27687      0.19249      
6300    0.43252    0.05558    0.07410    0.03862      0.24150      0.22715      0.02914      0.29789      0.20756      
6400    0.43284    0.05594    0.07481    0.03816      0.24187      0.22063      0.03607      0.31212      0.19951      
6500    0.42428    0.05612    0.07515    0.03916      0.23401      0.19847      0.02620      0.29663      0.19708      
6600    0.45069    0.05655    0.07577    0.04947      0.24902      0.19872      0.04650      0.28806      0.18357      
6700    0.42331    0.05664    0.07602    0.04511      0.22628      0.19263      0.03904      0.26925      0.15103      
6800    0.42750    0.05729    0.07658    0.04485      0.22899      0.19795      0.04409      0.27777      0.18627      
6900    0.42939    0.05760    0.07723    0.03851      0.23534      0.20703      0.03324      0.27724      0.20862      
7000    0.42483    0.05768    0.07735    0.04030      0.23035      0.19153      0.04576      0.28465      0.15804      
7100    0.42374    0.05800    0.07762    0.03769      0.23106      0.19374      0.04972      0.29354      0.19928      
7200    0.43774    0.05831    0.07828    0.04322      0.23908      0.18859      0.04079      0.30839      0.17136      
7300    0.42346    0.05856    0.07858    0.03847      0.22838      0.19470      0.04409      0.29849      0.17382      
7400    0.42319    0.05872    0.07921    0.04442      0.22230      0.18534      0.04220      0.29632      0.15566      
7500    0.42498    0.05933    0.07952    0.03903      0.22887      0.18221      0.02941      0.28019      0.19068      
7600    0.41715    0.05923    0.07940    0.03715      0.22341      0.17955      0.04462      0.28769      0.19176      
7700    0.42079    0.05937    0.07927    0.04314      0.22112      0.17889      0.03968      0.29564      0.17620      
7800    0.43079    0.05911    0.07913    0.04372      0.23014      0.18681      0.03744      0.27676      0.20547      
7900    0.42508    0.05943    0.07933    0.03637      0.22786      0.22087      0.05286      0.29589      0.20875      
8000    0.41890    0.05996    0.08010    0.03690      0.22389      0.18052      0.05597      0.29674      0.17392      
8100    0.43376    0.05976    0.07994    0.03635      0.24084      0.16867      0.04717      0.31425      0.18134      
8200    0.42239    0.06007    0.07974    0.04136      0.22103      0.20183      0.03959      0.28862      0.19026      
8300    0.41555    0.06010    0.07999    0.03549      0.22067      0.19296      0.03862      0.29622      0.16746      
8400    0.42258    0.05996    0.07962    0.03712      0.22792      0.17963      0.04194      0.31668      0.16110      
8500    0.41826    0.06018    0.07984    0.03582      0.22452      0.17908      0.03289      0.29120      0.15795      
8600    0.41466    0.06015    0.08016    0.03395      0.22031      0.20075      0.02885      0.29442      0.20398      
8700    0.42059    0.05971    0.07956    0.03911      0.22451      0.17693      0.03942      0.28150      0.18370      
8800    0.40850    0.05970    0.07956    0.03176      0.21706      0.20423      0.03751      0.29907      0.18532      
8900    0.40797    0.05980    0.07985    0.03175      0.21869      0.17878      0.03989      0.26799      0.18802      
9000    0.41841    0.05994    0.08000    0.03528      0.22499      0.18211      0.03614      0.27464      0.17421      
9100    0.40863    0.06008    0.07991    0.03504      0.21436      0.19236      0.03492      0.27222      0.18269      
9200    0.40912    0.05997    0.07967    0.03531      0.21527      0.18903      0.03445      0.27273      0.18666      
9300    0.41400    0.05977    0.07917    0.03395      0.22294      0.18161      0.03701      0.25768      0.18595      
9400    0.40192    0.05962    0.07912    0.03292      0.21151      0.18759      0.04815      0.28946      0.17728      
9500    0.40752    0.05972    0.07899    0.03687      0.21441      0.17524      0.05052      0.28051      0.20364      
9600    0.41323    0.05961    0.07914    0.03653      0.22134      0.16616      0.02989      0.28040      0.17788      
9700    0.40497    0.05938    0.07844    0.03447      0.21393      0.18745      0.04202      0.27252      0.19044      
9800    0.40228    0.05950    0.07879    0.03347      0.21222      0.18304      0.04471      0.26641      0.18394      
9900    0.40672    0.05936    0.07840    0.03391      0.21759      0.17454      0.04633      0.27481      0.17481      
10000   0.39789    0.05961    0.07847    0.03054      0.21061      0.18652      0.03519      0.28015      0.16697      
10100   0.39970    0.05951    0.07867    0.03306      0.21007      0.18388      0.04757      0.27544      0.17939      
10200   0.40623    0.05907    0.07837    0.03532      0.21706      0.16419      0.04673      0.31027      0.20671      
10300   0.39689    0.05906    0.07827    0.03293      0.20849      0.18132      0.04232      0.26814      0.16782      
10400   0.39715    0.05939    0.07841    0.03402      0.20733      0.17995      0.03586      0.27881      0.17056      
10500   0.40538    0.05992    0.07890    0.03174      0.21771      0.17111      0.04491      0.29740      0.18025      
10600   0.39778    0.05946    0.07857    0.03433      0.20754      0.17889      0.05131      0.26255      0.16117      
10700   0.39731    0.06012    0.07926    0.03400      0.20678      0.17158      0.04685      0.26126      0.16701      
10800   0.40227    0.05986    0.07902    0.02929      0.21659      0.17507      0.04332      0.25161      0.15705      
10900   0.39422    0.05975    0.07886    0.02985      0.20668      0.19080      0.03721      0.25536      0.15292      
11000   0.39551    0.06004    0.07912    0.03177      0.20694      0.17647      0.04310      0.25316      0.15416      
11100   0.39668    0.05989    0.07885    0.03038      0.21081      0.16751      0.03164      0.26763      0.17093      
11200   0.39206    0.05968    0.07870    0.03139      0.20427      0.18021      0.04107      0.28641      0.15159      
11300   0.39122    0.05973    0.07862    0.03171      0.20432      0.16838      0.03145      0.26949      0.14902      
11400   0.39496    0.05974    0.07854    0.02918      0.21090      0.16595      0.03484      0.25718      0.16197      
11500   0.38738    0.05990    0.07851    0.02997      0.20194      0.17063      0.04187      0.26279      0.16068      
11600   0.38887    0.05958    0.07826    0.02978      0.20382      0.17426      0.02584      0.26947      0.16976      
11700   0.39535    0.05965    0.07832    0.02965      0.21168      0.16052      0.03374      0.25622      0.15883      
11800   0.38319    0.05933    0.07796    0.02877      0.20080      0.16346      0.02643      0.25477      0.15493      
11900   0.38483    0.05933    0.07803    0.02714      0.20359      0.16729      0.03174      0.26390      0.16536      
12000   0.39294    0.05920    0.07768    0.03037      0.20926      0.16441      0.03273      0.25698      0.15164      
12100   0.38394    0.05931    0.07771    0.02995      0.19993      0.17044      0.02895      0.26840      0.16328      
12200   0.38458    0.05881    0.07697    0.03136      0.20164      0.15804      0.03692      0.28003      0.14934      
12300   0.39082    0.05865    0.07690    0.03012      0.20790      0.17259      0.02935      0.25629      0.16908      
12400   0.37931    0.05877    0.07694    0.02683      0.19941      0.17350      0.03014      0.26280      0.15735      
12500   0.37927    0.05845    0.07668    0.02897      0.19929      0.15876      0.03882      0.25316      0.15336      
12600   0.38793    0.05863    0.07670    0.02858      0.20804      0.15979      0.02709      0.25506      0.16746      
12700   0.37921    0.05865    0.07677    0.02586      0.20081      0.17117      0.03416      0.26891      0.16688      
12800   0.37866    0.05830    0.07613    0.02860      0.19860      0.17029      0.02989      0.27617      0.14877      
12900   0.38607    0.05788    0.07554    0.03022      0.20563      0.16799      0.03156      0.25964      0.16196      
13000   0.37692    0.05786    0.07556    0.02707      0.20017      0.16266      0.03466      0.26488      0.14836      
13100   0.37570    0.05778    0.07556    0.02559      0.20004      0.16723      0.03066      0.25494      0.17286      
13200   0.38281    0.05773    0.07539    0.02827      0.20583      0.15591      0.03415      0.24813      0.13894      
13300   0.37360    0.05776    0.07523    0.02711      0.19674      0.16761      0.02692      0.25968      0.15743      
13400   0.37460    0.05795    0.07549    0.02737      0.19787      0.15921      0.02843      0.26382      0.15043      
13500   0.37934    0.05796    0.07533    0.02913      0.20185      0.15066      0.02961      0.25285      0.14496      
13600   0.37038    0.05735    0.07462    0.02716      0.19496      0.16285      0.03728      0.24734      0.15032      
13700   0.37070    0.05700    0.07413    0.02767      0.19640      0.15502      0.03164      0.24615      0.15989      
13800   0.37534    0.05671    0.07407    0.02826      0.20134      0.14959      0.03564      0.25023      0.13548      
13900   0.36754    0.05671    0.07403    0.02728      0.19446      0.15056      0.03800      0.24535      0.13996      
14000   0.36878    0.05637    0.07352    0.02867      0.19552      0.14697      0.03001      0.23995      0.15675      
14100   0.37302    0.05660    0.07375    0.02859      0.19891      0.15165      0.03074      0.24184      0.13778      
14200   0.36569    0.05619    0.07350    0.02899      0.19155      0.15456      0.03375      0.24032      0.14841      
14300   0.36662    0.05607    0.07334    0.02822      0.19432      0.14665      0.03413      0.24460      0.14468      
14400   0.37182    0.05601    0.07325    0.02698      0.20033      0.15247      0.03190      0.25327      0.15100      
14500   0.36250    0.05575    0.07276    0.02756      0.19084      0.15586      0.03441      0.23804      0.15119      
14600   0.36435    0.05542    0.07244    0.02937      0.19184      0.15281      0.03726      0.23951      0.14600      
14700   0.36976    0.05536    0.07238    0.02817      0.19890      0.14945      0.03744      0.25519      0.13864      
14800   0.35993    0.05535    0.07241    0.02620      0.19057      0.15403      0.02995      0.24533      0.15353      
14900   0.36242    0.05525    0.07233    0.02681      0.19242      0.15603      0.03556      0.24775      0.16753      
15000   0.36643    0.05497    0.07190    0.02648      0.19871      0.14370      0.02889      0.26157      0.14951      
15100   0.35837    0.05481    0.07188    0.02650      0.18996      0.15224      0.03888      0.25385      0.15527      
15200   0.35894    0.05445    0.07131    0.02705      0.19136      0.14777      0.03499      0.23661      0.15648      
15300   0.36450    0.05397    0.07099    0.02618      0.19863      0.14725      0.03281      0.24636      0.15728      
15400   0.35423    0.05358    0.07041    0.02430      0.19006      0.15883      0.03634      0.25700      0.15606      
15500   0.35422    0.05309    0.06995    0.02506      0.19110      0.15012      0.03086      0.24837      0.15695      
15600   0.36111    0.05317    0.06977    0.02562      0.19761      0.14944      0.02600      0.24556      0.15246      
15700   0.35152    0.05258    0.06907    0.02659      0.18780      0.15471      0.03401      0.24182      0.16346      
15800   0.35328    0.05244    0.06898    0.02602      0.19018      0.15655      0.03155      0.24513      0.16247      
15900   0.35808    0.05184    0.06827    0.02628      0.19729      0.14395      0.03247      0.25820      0.15032      
16000   0.34873    0.05138    0.06793    0.02509      0.18889      0.15444      0.02865      0.24305      0.15736      
16100   0.35028    0.05119    0.06759    0.02769      0.18866      0.15138      0.02918      0.24745      0.15820      
16200   0.35334    0.05120    0.06768    0.02464      0.19483      0.14985      0.03163      0.25228      0.14797      
16300   0.34759    0.05116    0.06772    0.02709      0.18572      0.15890      0.03872      0.24489      0.14924      
16400   0.34909    0.05099    0.06744    0.02640      0.18832      0.15932      0.02712      0.24290      0.15649      
16500   0.35204    0.05058    0.06695    0.02605      0.19403      0.14432      0.03475      0.23954      0.14646      
16600   0.34374    0.05061    0.06676    0.02529      0.18540      0.15682      0.03062      0.24234      0.15129      
16700   0.34571    0.05033    0.06662    0.02523      0.18865      0.14886      0.02975      0.23936      0.15598      
16800   0.35020    0.04996    0.06617    0.02526      0.19418      0.14638      0.02930      0.24515      0.15812      
16900   0.34105    0.04975    0.06591    0.02401      0.18625      0.15124      0.03313      0.24724      0.14493      
17000   0.34290    0.04958    0.06569    0.02498      0.18812      0.14532      0.03463      0.24343      0.14588      
17100   0.34578    0.04916    0.06522    0.02509      0.19197      0.14343      0.03123      0.24450      0.15409      
17200   0.33968    0.04884    0.06503    0.02346      0.18694      0.15401      0.03245      0.23318      0.16564      
17300   0.34143    0.04905    0.06511    0.02512      0.18727      0.14878      0.02950      0.23867      0.14788      
17400   0.34411    0.04867    0.06473    0.02490      0.19182      0.14004      0.03112      0.24010      0.14740      
17500   0.33715    0.04887    0.06491    0.02473      0.18385      0.14803      0.03236      0.24234      0.14637      
17600   0.33797    0.04850    0.06453    0.02488      0.18544      0.14616      0.03180      0.24715      0.14828      
17700   0.34312    0.04839    0.06440    0.02504      0.19084      0.14463      0.03250      0.24118      0.14382      
17800   0.33643    0.04847    0.06432    0.02452      0.18367      0.15457      0.03424      0.24485      0.14107      
17900   0.33639    0.04803    0.06393    0.02409      0.18577      0.14565      0.03039      0.23750      0.14729      
18000   0.34054    0.04744    0.06354    0.02483      0.19023      0.14509      0.03241      0.23684      0.14594      
18100   0.33327    0.04725    0.06318    0.02471      0.18339      0.14741      0.03041      0.23521      0.14591      
18200   0.33388    0.04729    0.06298    0.02524      0.18408      0.14294      0.03212      0.24042      0.14590      
18300   0.33710    0.04696    0.06271    0.02472      0.18871      0.13986      0.03204      0.24147      0.15144      
18400   0.33070    0.04655    0.06242    0.02440      0.18259      0.14727      0.03098      0.23588      0.14713      
18500   0.33236    0.04651    0.06225    0.02604      0.18326      0.14299      0.02826      0.23795      0.14584      
18600   0.33657    0.04637    0.06218    0.02471      0.18949      0.13829      0.03016      0.25079      0.15730      
18700   0.32914    0.04607    0.06184    0.02327      0.18355      0.14413      0.02826      0.24731      0.15613      
18800   0.32966    0.04612    0.06183    0.02407      0.18381      0.13829      0.02841      0.23816      0.15524      
18900   0.33436    0.04572    0.06150    0.02385      0.18908      0.14194      0.02753      0.24304      0.15650      
19000   0.32670    0.04544    0.06115    0.02357      0.18213      0.14407      0.02845      0.23350      0.16482      
19100   0.32780    0.04526    0.06087    0.02257      0.18504      0.14062      0.03019      0.24188      0.16762      
19200   0.33228    0.04521    0.06081    0.02357      0.18888      0.13811      0.02672      0.23170      0.15846      
19300   0.32478    0.04489    0.06053    0.02336      0.18161      0.14381      0.03358      0.23971      0.16305      
19400   0.32615    0.04460    0.06028    0.02376      0.18294      0.14569      0.02816      0.23776      0.15942      
19500   0.33038    0.04442    0.05984    0.02376      0.18821      0.14151      0.03195      0.23453      0.16559      
19600   0.32270    0.04423    0.05957    0.02342      0.18131      0.14169      0.03221      0.23227      0.15855      
19700   0.32360    0.04392    0.05926    0.02283      0.18370      0.13901      0.02581      0.23969      0.16883      
19800   0.32777    0.04388    0.05914    0.02412      0.18713      0.13504      0.03330      0.22850      0.16391      
19900   0.32126    0.04390    0.05904    0.02257      0.18166      0.14077      0.02822      0.23322      0.15872      
20000   0.32375    0.04379    0.05902    0.02289      0.18367      0.14384      0.02871      0.23251      0.16804      
20100   0.32644    0.04363    0.05877    0.02399      0.18676      0.13290      0.03265      0.23160      0.16911      
20200   0.31881    0.04328    0.05835    0.02240      0.18105      0.13732      0.03031      0.23059      0.15916      
20300   0.32038    0.04276    0.05791    0.02350      0.18228      0.13924      0.03230      0.23109      0.15908      
20400   0.32403    0.04259    0.05772    0.02343      0.18687      0.13431      0.03117      0.23076      0.15729      
20500   0.31749    0.04224    0.05731    0.02335      0.18067      0.13922      0.03095      0.22975      0.15422      
20600   0.31921    0.04233    0.05729    0.02328      0.18246      0.13853      0.02385      0.23282      0.15274      
20700   0.32345    0.04229    0.05732    0.02448      0.18599      0.13385      0.02789      0.23317      0.15640      
20800   0.31577    0.04193    0.05708    0.02199      0.18048      0.14286      0.02988      0.23245      0.15569      
20900   0.31769    0.04194    0.05693    0.02305      0.18178      0.13995      0.02983      0.23426      0.15758      
21000   0.32057    0.04152    0.05641    0.02320      0.18556      0.13876      0.03025      0.23500      0.16328      
21100   0.31352    0.04135    0.05634    0.02201      0.17967      0.14160      0.02739      0.24002      0.15641      
21200   0.31642    0.04141    0.05639    0.02311      0.18149      0.14021      0.02571      0.23950      0.15731      
21300   0.31876    0.04118    0.05609    0.02296      0.18516      0.13375      0.03100      0.23948      0.15765      
21400   0.31211    0.04102    0.05593    0.02222      0.17885      0.14078      0.02555      0.23922      0.15527      
21500   0.31452    0.04095    0.05594    0.02231      0.18165      0.13682      0.02868      0.23726      0.15371      
21600   0.31887    0.04070    0.05580    0.02250      0.18615      0.13726      0.02786      0.23157      0.15803      
21700   0.31152    0.04038    0.05544    0.02217      0.17912      0.14405      0.02565      0.23648      0.15229      
21800   0.31235    0.04006    0.05508    0.02264      0.18101      0.13552      0.02703      0.23795      0.14810      
21900   0.31699    0.03986    0.05479    0.02260      0.18606      0.13679      0.02506      0.22977      0.15056      
22000   0.30922    0.03959    0.05462    0.02222      0.17860      0.14196      0.02806      0.23005      0.15948      
22100   0.31079    0.03960    0.05449    0.02260      0.18025      0.13854      0.02891      0.23326      0.15844      
22200   0.31512    0.03934    0.05422    0.02289      0.18488      0.13786      0.02863      0.23053      0.15218      
22300   0.30784    0.03923    0.05408    0.02194      0.17822      0.14367      0.02773      0.22693      0.14994      
22400   0.30928    0.03900    0.05384    0.02181      0.18031      0.14323      0.02767      0.23248      0.15319      
22500   0.31320    0.03871    0.05350    0.02294      0.18422      0.13827      0.02630      0.22852      0.15272      
22600   0.30687    0.03874    0.05344    0.02167      0.17869      0.14328      0.02707      0.22973      0.15378      
22700   0.30811    0.03871    0.05353    0.02224      0.17945      0.14178      0.02873      0.22815      0.15912      
22800   0.31243    0.03857    0.05330    0.02261      0.18424      0.13711      0.02638      0.22827      0.15507      
22900   0.30537    0.03860    0.05326    0.02106      0.17842      0.14037      0.02596      0.23350      0.15388      
23000   0.30671    0.03821    0.05299    0.02229      0.17957      0.13644      0.02625      0.22531      0.15350      
23100   0.31091    0.03831    0.05311    0.02289      0.18325      0.13346      0.02629      0.22603      0.15388      
23200   0.30413    0.03809    0.05286    0.02230      0.17666      0.14227      0.02922      0.22465      0.15846      
23300   0.30636    0.03828    0.05302    0.02274      0.17840      0.13914      0.03195      0.22697      0.15834      
23400   0.31056    0.03802    0.05281    0.02246      0.18340      0.13872      0.02865      0.23338      0.15469      
23500   0.30308    0.03769    0.05261    0.02219      0.17683      0.13757      0.02756      0.23432      0.15601      
23600   0.30525    0.03770    0.05254    0.02215      0.17908      0.13790      0.02935      0.22717      0.14761      
23700   0.30908    0.03774    0.05246    0.02287      0.18249      0.13526      0.02720      0.23040      0.15270      
23800   0.30268    0.03755    0.05229    0.02188      0.17723      0.13733      0.03022      0.23943      0.15564      
23900   0.30406    0.03727    0.05196    0.02154      0.17953      0.13771      0.02515      0.23439      0.15222      
24000   0.30801    0.03717    0.05185    0.02277      0.18225      0.13960      0.02852      0.23262      0.15225      
24100   0.30089    0.03698    0.05168    0.02151      0.17672      0.14005      0.02663      0.23959      0.14423      
24200   0.30222    0.03671    0.05135    0.02171      0.17870      0.13758      0.02588      0.23284      0.15572      
24300   0.30610    0.03627    0.05104    0.02273      0.18247      0.13587      0.02826      0.23570      0.14843      
24400   0.29949    0.03639    0.05103    0.02165      0.17660      0.13830      0.02698      0.23320      0.15236      
24500   0.30156    0.03630    0.05085    0.02159      0.17901      0.13813      0.02504      0.23664      0.15227      
24600   0.30538    0.03624    0.05081    0.02213      0.18303      0.13166      0.02693      0.23448      0.15117      
24700   0.29849    0.03609    0.05067    0.02139      0.17663      0.13706      0.02871      0.23216      0.15005      
24800   0.30062    0.03607    0.05066    0.02118      0.17908      0.13620      0.02564      0.23450      0.14746      
24900   0.30465    0.03591    0.05045    0.02249      0.18252      0.13276      0.02715      0.22686      0.14835      
25000   0.29767    0.03593    0.05052    0.02084      0.17656      0.13815      0.02523      0.23151      0.15464      
25100   0.29997    0.03572    0.05025    0.02144      0.17892      0.13645      0.02820      0.22856      0.15824      
25200   0.30312    0.03561    0.05016    0.02153      0.18224      0.13578      0.02680      0.22651      0.15873      
25300   0.29651    0.03547    0.04991    0.02134      0.17611      0.13676      0.02726      0.22727      0.15504      
25400   0.29848    0.03533    0.04976    0.02099      0.17829      0.14121      0.02750      0.22727      0.15740      
25500   0.30201    0.03534    0.04977    0.02142      0.18208      0.13395      0.02514      0.22794      0.15602      
25600   0.29579    0.03523    0.04971    0.02094      0.17609      0.13818      0.02710      0.22418      0.15357      
25700   0.29756    0.03496    0.04946    0.02108      0.17827      0.13793      0.02608      0.22429      0.15810      
25800   0.30103    0.03495    0.04935    0.02198      0.18135      0.13384      0.02715      0.22405      0.15838      
25900   0.29448    0.03472    0.04925    0.02071      0.17594      0.13855      0.02582      0.22561      0.15979      
26000   0.29720    0.03468    0.04920    0.02131      0.17856      0.13455      0.02738      0.22459      0.16574      
26100   0.30091    0.03465    0.04915    0.02224      0.18173      0.13137      0.02787      0.22812      0.16015      
26200   0.29443    0.03448    0.04902    0.02062      0.17641      0.13906      0.02762      0.22822      0.16353      
26300   0.29616    0.03444    0.04890    0.02125      0.17800      0.13580      0.02576      0.22411      0.15483      
26400   0.29991    0.03430    0.04879    0.02202      0.18144      0.13367      0.02753      0.22652      0.15282      
26500   0.29355    0.03427    0.04872    0.02096      0.17573      0.13871      0.02678      0.22141      0.15349      
26600   0.29546    0.03418    0.04868    0.02122      0.17777      0.13611      0.02543      0.22461      0.15698      
26700   0.29924    0.03422    0.04865    0.02204      0.18079      0.13549      0.02792      0.22248      0.15513      
26800   0.29292    0.03402    0.04853    0.02105      0.17551      0.13811      0.02727      0.22491      0.15513      
26900   0.29439    0.03395    0.04843    0.02091      0.17717      0.13918      0.02575      0.22604      0.15810      
27000   0.29858    0.03387    0.04836    0.02184      0.18112      0.13387      0.02727      0.22440      0.15593      
27100   0.29171    0.03358    0.04815    0.02145      0.17498      0.13547      0.02775      0.22489      0.15937      
27200   0.29404    0.03344    0.04809    0.02137      0.17762      0.13518      0.02307      0.22577      0.15782      
27300   0.29698    0.03329    0.04790    0.02206      0.18056      0.13176      0.02991      0.22328      0.15793      
27400   0.29058    0.03309    0.04773    0.02103      0.17513      0.13595      0.02863      0.22211      0.16052      
27500   0.29260    0.03302    0.04769    0.02081      0.17735      0.13741      0.02712      0.22277      0.16249      
27600   0.29608    0.03296    0.04762    0.02171      0.18035      0.13441      0.02886      0.22222      0.16384      
27700   0.28981    0.03286    0.04751    0.02121      0.17476      0.13468      0.02688      0.22348      0.15876      
27800   0.29167    0.03281    0.04749    0.02122      0.17661      0.13541      0.02686      0.22265      0.15680      
27900   0.29561    0.03291    0.04745    0.02108      0.18083      0.13337      0.02722      0.22206      0.15610      
28000   0.28924    0.03273    0.04740    0.02133      0.17446      0.13336      0.02677      0.21911      0.15141      
28100   0.29080    0.03283    0.04738    0.02065      0.17664      0.13292      0.02707      0.22076      0.15226      
28200   0.29481    0.03251    0.04720    0.02133      0.18076      0.13006      0.02804      0.22704      0.15991      
28300   0.28854    0.03263    0.04722    0.02099      0.17415      0.13552      0.02747      0.22290      0.15990      
28400   0.29022    0.03255    0.04714    0.02081      0.17628      0.13441      0.02566      0.22383      0.15912      
28500   0.29432    0.03259    0.04718    0.02128      0.17995      0.13313      0.02593      0.21918      0.15117      
28600   0.28792    0.03244    0.04710    0.02096      0.17385      0.13571      0.02695      0.22192      0.15461      
28700   0.28963    0.03230    0.04693    0.02065      0.17648      0.13276      0.02590      0.22204      0.15529      
28800   0.29343    0.03237    0.04694    0.02098      0.18001      0.13129      0.02639      0.22026      0.15938      
28900   0.28725    0.03236    0.04686    0.02050      0.17397      0.13568      0.02369      0.22009      0.15334      
29000   0.28847    0.03227    0.04685    0.02054      0.17568      0.13144      0.02551      0.21763      0.15369      
29100   0.29250    0.03198    0.04668    0.02122      0.17957      0.13046      0.02629      0.21888      0.14947      
29200   0.28638    0.03198    0.04662    0.02076      0.17368      0.13356      0.02534      0.22055      0.15371      
29300   0.28790    0.03188    0.04652    0.02073      0.17557      0.13213      0.02444      0.21822      0.15483      
29400   0.29230    0.03179    0.04643    0.02109      0.17994      0.13049      0.02441      0.22548      0.15409      
29500   0.28584    0.03171    0.04635    0.02010      0.17409      0.13588      0.02413      0.22197      0.15556      
29600   0.28722    0.03159    0.04626    0.02069      0.17558      0.13096      0.02581      0.21968      0.15666      
29700   0.29138    0.03163    0.04628    0.02078      0.17985      0.12844      0.02447      0.21910      0.15669      
29800   0.28487    0.03149    0.04617    0.02067      0.17341      0.13126      0.02633      0.21961      0.15466      
29900   0.28711    0.03138    0.04606    0.02101      0.17548      0.13188      0.02579      0.22026      0.15344      
30000   0.29024    0.03129    0.04596    0.02057      0.17946      0.12969      0.02633      0.21885      0.15549      
30100   0.28436    0.03117    0.04584    0.02000      0.17386      0.13499      0.02463      0.22048      0.15507      
30200   0.28637    0.03099    0.04577    0.02074      0.17569      0.13180      0.02706      0.21887      0.15029      
30300   0.28961    0.03102    0.04573    0.02090      0.17909      0.12874      0.02571      0.22027      0.15396      
30400   0.28363    0.03084    0.04562    0.02017      0.17361      0.13397      0.02543      0.21989      0.15834      
30500   0.28534    0.03075    0.04551    0.02060      0.17533      0.13151      0.02520      0.21680      0.15763      
30600   0.28860    0.03072    0.04545    0.02095      0.17845      0.13014      0.02536      0.21739      0.15161      
30700   0.28277    0.03056    0.04539    0.02033      0.17337      0.13123      0.02599      0.21791      0.15428      
30800   0.28449    0.03044    0.04523    0.02047      0.17510      0.13243      0.02696      0.21710      0.15513      
30900   0.28831    0.03041    0.04522    0.02111      0.17857      0.12990      0.02494      0.21635      0.15380      
31000   0.28202    0.03032    0.04515    0.02024      0.17319      0.13128      0.02637      0.21658      0.15411      
31100   0.28423    0.03025    0.04508    0.02057      0.17513      0.13202      0.02647      0.21698      0.15760      
31200   0.28751    0.03024    0.04508    0.02062      0.17879      0.12774      0.02634      0.21561      0.15562      
31300   0.28155    0.03018    0.04499    0.02010      0.17307      0.13218      0.02694      0.21844      0.15864      
31400   0.28345    0.03009    0.04492    0.02034      0.17520      0.12893      0.02735      0.21571      0.15408      
31500   0.28682    0.03000    0.04483    0.02079      0.17831      0.12887      0.02829      0.21935      0.15527      
31600   0.28101    0.02994    0.04481    0.02029      0.17287      0.13105      0.02632      0.21549      0.15186      
31700   0.28267    0.02984    0.04473    0.02066      0.17436      0.13070      0.02726      0.21497      0.15169      
31800   0.28616    0.02977    0.04466    0.02053      0.17832      0.12874      0.02741      0.21603      0.15012      
31900   0.28046    0.02978    0.04459    0.02012      0.17292      0.13043      0.02611      0.21445      0.14894      
32000   0.28220    0.02961    0.04446    0.02053      0.17455      0.13047      0.02828      0.21506      0.14950      
32100   0.28510    0.02939    0.04431    0.02088      0.17758      0.12930      0.02746      0.21671      0.15195      
32200   0.27966    0.02937    0.04426    0.02019      0.17270      0.13140      0.02636      0.21363      0.14940      
32300   0.28135    0.02944    0.04427    0.02044      0.17436      0.12834      0.02565      0.21343      0.15158      
32400   0.28472    0.02933    0.04421    0.02083      0.17762      0.12733      0.02812      0.21478      0.15261      
32500   0.27941    0.02927    0.04415    0.02059      0.17240      0.12999      0.02838      0.21546      0.14964      
32600   0.28082    0.02914    0.04413    0.01998      0.17456      0.13005      0.02750      0.21557      0.15160      
32700   0.28410    0.02907    0.04406    0.02050      0.17772      0.12755      0.02807      0.21732      0.15021      
32800   0.27880    0.02902    0.04403    0.02046      0.17232      0.12962      0.02809      0.21623      0.15229      
32900   0.28044    0.02905    0.04399    0.02009      0.17435      0.12949      0.02787      0.21581      0.15130      
33000   0.28380    0.02895    0.04392    0.02053      0.17746      0.12935      0.02844      0.21388      0.15122      
33100   0.27815    0.02882    0.04383    0.02014      0.17232      0.13043      0.02831      0.21120      0.14929      
33200   0.27996    0.02869    0.04371    0.01998      0.17455      0.13032      0.02770      0.21223      0.14801      
33300   0.28284    0.02865    0.04364    0.02100      0.17695      0.12605      0.02828      0.21400      0.14891      
33400   0.27753    0.02856    0.04355    0.02012      0.17213      0.13180      0.02755      0.21618      0.15016      
33500   0.27944    0.02862    0.04357    0.02027      0.17403      0.12947      0.02997      0.21469      0.14998      
33600   0.28246    0.02842    0.04343    0.02072      0.17719      0.12696      0.02659      0.21688      0.14809      
33700   0.27695    0.02841    0.04338    0.02042      0.17178      0.12956      0.02865      0.21621      0.14549      
33800   0.27853    0.02836    0.04335    0.02066      0.17349      0.12668      0.02769      0.21451      0.14570      
33900   0.28175    0.02823    0.04328    0.02083      0.17696      0.12449      0.02757      0.21485      0.14442      
34000   0.27639    0.02827    0.04326    0.02001      0.17194      0.12903      0.02658      0.21383      0.14568      
34100   0.27840    0.02819    0.04318    0.02057      0.17370      0.12753      0.02791      0.21203      0.14523      
34200   0.28128    0.02807    0.04312    0.02072      0.17676      0.12612      0.02530      0.21258      0.14713      
34300   0.27598    0.02803    0.04306    0.02022      0.17167      0.12994      0.02574      0.21241      0.14643      
34400   0.27807    0.02802    0.04300    0.02030      0.17369      0.13055      0.02696      0.21062      0.14814      
34500   0.28087    0.02787    0.04287    0.02056      0.17696      0.12607      0.02710      0.21184      0.14678      
34600   0.27538    0.02773    0.04278    0.02002      0.17195      0.12907      0.02528      0.21222      0.14912      
34700   0.27765    0.02779    0.04275    0.02029      0.17398      0.12840      0.02585      0.21203      0.14892      
34800   0.28032    0.02765    0.04267    0.02069      0.17667      0.12629      0.02649      0.21146      0.14649      
34900   0.27498    0.02764    0.04265    0.02035      0.17134      0.12997      0.02705      0.21161      0.14623      
35000   0.27684    0.02755    0.04259    0.01997      0.17382      0.12903      0.02713      0.21300      0.14982      
35100   0.27999    0.02748    0.04254    0.02073      0.17665      0.12585      0.02651      0.21391      0.14584      
35200   0.27445    0.02743    0.04240    0.02026      0.17151      0.12864      0.02658      0.21182      0.14602      
35300   0.27614    0.02728    0.04232    0.02034      0.17351      0.12690      0.02612      0.21212      0.14816      
35400   0.27937    0.02726    0.04228    0.02048      0.17680      0.12548      0.02696      0.21179      0.14695      
35500   0.27389    0.02716    0.04218    0.02031      0.17147      0.12779      0.02588      0.21224      0.14510      
35600   0.27555    0.02710    0.04212    0.01999      0.17366      0.12680      0.02669      0.21383      0.14825      
35700   0.27900    0.02701    0.04206    0.02066      0.17675      0.12526      0.02651      0.21123      0.14590      
35800   0.27325    0.02699    0.04202    0.02018      0.17120      0.12858      0.02508      0.21220      0.14547      
35900   0.27507    0.02687    0.04192    0.02044      0.17303      0.12817      0.02678      0.21240      0.14633      
36000   0.27854    0.02688    0.04192    0.02039      0.17677      0.12579      0.02465      0.21201      0.14568      
36100   0.27291    0.02678    0.04180    0.02016      0.17129      0.12873      0.02473      0.21226      0.14696      
36200   0.27457    0.02669    0.04172    0.02016      0.17333      0.12684      0.02408      0.21132      0.14768      
36300   0.27788    0.02666    0.04168    0.02074      0.17623      0.12578      0.02570      0.21205      0.14805      
36400   0.27231    0.02658    0.04164    0.02012      0.17122      0.12748      0.02652      0.21093      0.14767      
36500   0.27421    0.02654    0.04156    0.02018      0.17334      0.12583      0.02546      0.21117      0.15108      
36600   0.27775    0.02651    0.04155    0.02055      0.17660      0.12551      0.02462      0.21071      0.14839      
36700   0.27194    0.02650    0.04150    0.02003      0.17117      0.12750      0.02406      0.21106      0.14739      
36800   0.27407    0.02641    0.04144    0.02024      0.17331      0.12670      0.02571      0.21157      0.14601      
36900   0.27735    0.02641    0.04140    0.02032      0.17645      0.12767      0.02548      0.20983      0.14755      
37000   0.27170    0.02630    0.04133    0.01982      0.17140      0.12852      0.02546      0.21051      0.14616      
37100   0.27338    0.02626    0.04129    0.02026      0.17287      0.12692      0.02501      0.20951      0.14580      
37200   0.27694    0.02629    0.04128    0.02071      0.17595      0.12714      0.02640      0.20986      0.14563      
37300   0.27137    0.02622    0.04123    0.02001      0.17099      0.12906      0.02496      0.20997      0.14551      
37400   0.27305    0.02614    0.04118    0.02028      0.17286      0.12595      0.02638      0.21164      0.14577      
37500   0.27653    0.02620    0.04116    0.02031      0.17613      0.12736      0.02612      0.21085      0.14460      
37600   0.27091    0.02609    0.04109    0.01998      0.17089      0.12861      0.02648      0.20911      0.14345      
37700   0.27254    0.02592    0.04103    0.02027      0.17276      0.12566      0.02677      0.20934      0.14533      
37800   0.27592    0.02591    0.04100    0.02063      0.17582      0.12565      0.02493      0.21042      0.14550      
37900   0.27032    0.02589    0.04098    0.01992      0.17077      0.12751      0.02613      0.21049      0.14715      
38000   0.27226    0.02588    0.04097    0.02014      0.17270      0.12575      0.02601      0.21048      0.14438      
38100   0.27586    0.02586    0.04090    0.02040      0.17620      0.12508      0.02688      0.21045      0.14643      
38200   0.26988    0.02569    0.04081    0.01980      0.17088      0.12700      0.02500      0.21145      0.14582      
38300   0.27176    0.02571    0.04080    0.02002      0.17262      0.12603      0.02504      0.21065      0.14564      
38400   0.27503    0.02568    0.04075    0.02080      0.17535      0.12440      0.02557      0.21020      0.14572      
38500   0.26955    0.02566    0.04074    0.01989      0.17047      0.12792      0.02585      0.20971      0.14447      
38600   0.27131    0.02552    0.04067    0.01988      0.17271      0.12526      0.02652      0.20984      0.14352      
38700   0.27446    0.02545    0.04060    0.02034      0.17572      0.12352      0.02549      0.20962      0.14204      
38800   0.26898    0.02535    0.04055    0.02007      0.17035      0.12665      0.02557      0.21066      0.14150      
38900   0.27091    0.02530    0.04050    0.02010      0.17255      0.12467      0.02567      0.20920      0.14298      
39000   0.27419    0.02524    0.04045    0.02054      0.17560      0.12353      0.02493      0.21084      0.14211      
39100   0.26853    0.02527    0.04045    0.01980      0.17037      0.12640      0.02559      0.20988      0.14258      
39200   0.27035    0.02518    0.04040    0.02000      0.17226      0.12504      0.02525      0.20934      0.14404      
39300   0.27372    0.02517    0.04033    0.02042      0.17536      0.12432      0.02626      0.20969      0.14214      
39400   0.26809    0.02521    0.04036    0.01985      0.17010      0.12576      0.02485      0.20853      0.14025      
39500   0.27014    0.02516    0.04031    0.02028      0.17202      0.12368      0.02675      0.20911      0.14441      
39600   0.27315    0.02511    0.04027    0.02059      0.17495      0.12222      0.02613      0.20824      0.14469      
39700   0.26785    0.02510    0.04027    0.01997      0.16992      0.12589      0.02540      0.20916      0.14101      
39800   0.26995    0.02503    0.04023    0.02016      0.17214      0.12403      0.02648      0.20786      0.14116      
39900   0.27284    0.02497    0.04018    0.02052      0.17475      0.12425      0.02572      0.20730      0.14229      
40000   0.26749    0.02495    0.04017    0.01999      0.16993      0.12451      0.02602      0.20793      0.14245      
40100   0.26966    0.02495    0.04014    0.02003      0.17204      0.12493      0.02665      0.20892      0.14072      
40200   0.27260    0.02493    0.04010    0.02062      0.17464      0.12311      0.02632      0.21103      0.14436      
40300   0.26710    0.02488    0.04006    0.01988      0.16975      0.12528      0.02594      0.20899      0.14406      
40400   0.26940    0.02488    0.04004    0.02012      0.17197      0.12381      0.02644      0.20985      0.14458      
40500   0.27228    0.02477    0.03998    0.02039      0.17486      0.12281      0.02559      0.20920      0.14505      
40600   0.26675    0.02478    0.03995    0.01985      0.16972      0.12455      0.02636      0.20933      0.14415      
40700   0.26881    0.02471    0.03993    0.02012      0.17172      0.12338      0.02669      0.20890      0.14193      
40800   0.27183    0.02472    0.03988    0.02043      0.17464      0.12156      0.02667      0.20797      0.14225      
40900   0.26647    0.02462    0.03983    0.01988      0.16973      0.12418      0.02659      0.20917      0.14353      
41000   0.26863    0.02454    0.03978    0.02006      0.17191      0.12339      0.02655      0.20916      0.14381      
41100   0.27154    0.02446    0.03975    0.02038      0.17469      0.12256      0.02524      0.21072      0.14433      
41200   0.26604    0.02442    0.03970    0.01952      0.16985      0.12554      0.02476      0.20841      0.14303      
41300   0.26819    0.02437    0.03965    0.01975      0.17199      0.12445      0.02634      0.21031      0.14538      
41400   0.27117    0.02433    0.03963    0.02034      0.17466      0.12211      0.02535      0.20793      0.14371      
41500   0.26590    0.02431    0.03959    0.01967      0.16972      0.12616      0.02543      0.20809      0.14327      
41600   0.26794    0.02426    0.03956    0.02009      0.17169      0.12338      0.02623      0.20861      0.14486      
41700   0.27100    0.02427    0.03956    0.02018      0.17465      0.12335      0.02573      0.20844      0.14578      
41800   0.26550    0.02426    0.03955    0.01983      0.16943      0.12431      0.02530      0.20885      0.14353      
41900   0.26754    0.02424    0.03952    0.01984      0.17160      0.12335      0.02494      0.20747      0.14396      
42000   0.27081    0.02418    0.03951    0.02025      0.17475      0.12122      0.02477      0.20828      0.14337      
42100   0.26541    0.02412    0.03944    0.01975      0.16954      0.12565      0.02477      0.20850      0.14305      
42200   0.26735    0.02411    0.03944    0.01977      0.17163      0.12396      0.02443      0.20718      0.14319      
42300   0.27055    0.02407    0.03941    0.02027      0.17445      0.12344      0.02475      0.20927      0.14292      
42400   0.26510    0.02407    0.03941    0.01969      0.16933      0.12593      0.02524      0.20895      0.14278      
42500   0.26698    0.02404    0.03939    0.01947      0.17161      0.12465      0.02495      0.20752      0.14587      
42600   0.27020    0.02403    0.03937    0.02005      0.17442      0.12328      0.02544      0.20884      0.14372      
42700   0.26497    0.02391    0.03933    0.01940      0.16980      0.12536      0.02422      0.20893      0.14219      
42800   0.26688    0.02387    0.03927    0.01964      0.17172      0.12363      0.02569      0.20925      0.14317      
42900   0.27000    0.02393    0.03928    0.02007      0.17440      0.12326      0.02483      0.20875      0.14398      
43000   0.26487    0.02387    0.03926    0.01973      0.16962      0.12391      0.02426      0.20794      0.14083      
43100   0.26668    0.02388    0.03924    0.01966      0.17157      0.12334      0.02545      0.20730      0.14194      
43200   0.26987    0.02384    0.03921    0.02012      0.17450      0.12209      0.02585      0.20810      0.14378      
43300   0.26460    0.02386    0.03919    0.01953      0.16957      0.12449      0.02536      0.20860      0.14269      
43400   0.26627    0.02380    0.03916    0.01951      0.17147      0.12318      0.02519      0.20661      0.14204      
43500   0.26967    0.02377    0.03914    0.02025      0.17425      0.12262      0.02583      0.20687      0.14272      
43600   0.26432    0.02377    0.03912    0.01983      0.16934      0.12256      0.02625      0.20736      0.14027      
43700   0.26617    0.02378    0.03908    0.01968      0.17135      0.12278      0.02634      0.20748      0.14198      
43800   0.26940    0.02372    0.03905    0.02007      0.17431      0.12247      0.02627      0.20636      0.14238      
43900   0.26414    0.02367    0.03903    0.01981      0.16922      0.12410      0.02646      0.20571      0.13944      
44000   0.26589    0.02354    0.03898    0.01963      0.17136      0.12372      0.02666      0.20648      0.13926      
44100   0.26910    0.02357    0.03898    0.02006      0.17422      0.12282      0.02626      0.20686      0.13974      
44200   0.26373    0.02349    0.03896    0.01967      0.16923      0.12379      0.02518      0.20664      0.14151      
44300   0.26576    0.02350    0.03895    0.01962      0.17147      0.12226      0.02571      0.20580      0.14041      
44400   0.26888    0.02350    0.03893    0.02023      0.17414      0.12090      0.02683      0.20580      0.14202      
44500   0.26367    0.02350    0.03890    0.01959      0.16919      0.12490      0.02581      0.20609      0.14098      
44600   0.26549    0.02340    0.03886    0.01945      0.17144      0.12329      0.02673      0.20669      0.14217      
44700   0.26858    0.02343    0.03887    0.02011      0.17415      0.12022      0.02625      0.20657      0.14014      
44800   0.26340    0.02341    0.03885    0.01956      0.16927      0.12301      0.02608      0.20645      0.14269      
44900   0.26542    0.02339    0.03881    0.01958      0.17151      0.12120      0.02699      0.20732      0.14346      
45000   0.26845    0.02335    0.03881    0.02005      0.17406      0.12170      0.02604      0.20744      0.14336      
45100   0.26326    0.02330    0.03880    0.01955      0.16925      0.12366      0.02608      0.20764      0.14201      
45200   0.26520    0.02330    0.03878    0.01937      0.17154      0.12213      0.02646      0.20767      0.14339      
45300   0.26817    0.02321    0.03876    0.01993      0.17407      0.12198      0.02718      0.20780      0.14250      
45400   0.26298    0.02317    0.03874    0.01940      0.16924      0.12418      0.02556      0.20658      0.14255      
45500   0.26480    0.02318    0.03873    0.01970      0.17102      0.12173      0.02576      0.20583      0.14199      
45600   0.26795    0.02318    0.03871    0.01991      0.17404      0.12105      0.02544      0.20607      0.14334      
45700   0.26290    0.02313    0.03867    0.01942      0.16934      0.12334      0.02465      0.20537      0.14402      
45800   0.26475    0.02314    0.03867    0.01964      0.17105      0.12248      0.02661      0.20633      0.14295      
45900   0.26769    0.02310    0.03863    0.02007      0.17381      0.12084      0.02614      0.20601      0.14370      
46000   0.26271    0.02314    0.03864    0.01941      0.16932      0.12194      0.02561      0.20662      0.14359      
46100   0.26449    0.02311    0.03862    0.01971      0.17095      0.12102      0.02665      0.20644      0.14264      
46200   0.26757    0.02306    0.03859    0.01989      0.17404      0.11990      0.02598      0.20569      0.14363      
46300   0.26246    0.02305    0.03858    0.01942      0.16913      0.12273      0.02548      0.20558      0.14373      
46400   0.26441    0.02304    0.03856    0.01939      0.17115      0.12276      0.02611      0.20516      0.14318      
46500   0.26725    0.02298    0.03853    0.02000      0.17375      0.11990      0.02611      0.20574      0.14326      
46600   0.26213    0.02293    0.03849    0.01941      0.16909      0.12196      0.02555      0.20532      0.14124      
46700   0.26409    0.02293    0.03847    0.01946      0.17112      0.12120      0.02600      0.20529      0.14267      
46800   0.26719    0.02291    0.03844    0.02002      0.17383      0.11979      0.02668      0.20585      0.14108      
46900   0.26191    0.02291    0.03842    0.01941      0.16894      0.12230      0.02618      0.20568      0.14131      
47000   0.26383    0.02289    0.03841    0.01947      0.17094      0.12128      0.02661      0.20584      0.14116      
47100   0.26686    0.02283    0.03838    0.01999      0.17365      0.12004      0.02587      0.20542      0.14166      
47200   0.26158    0.02282    0.03836    0.01939      0.16882      0.12195      0.02591      0.20460      0.14105      
47300   0.26366    0.02282    0.03836    0.01965      0.17076      0.12080      0.02645      0.20579      0.14356      
47400   0.26670    0.02286    0.03838    0.02013      0.17336      0.11968      0.02624      0.20527      0.14196      
47500   0.26149    0.02284    0.03836    0.01936      0.16871      0.12233      0.02575      0.20526      0.14183      
47600   0.26354    0.02280    0.03833    0.01946      0.17077      0.12185      0.02583      0.20473      0.14219      
47700   0.26647    0.02279    0.03831    0.02005      0.17331      0.12014      0.02524      0.20456      0.14255      
47800   0.26124    0.02271    0.03827    0.01927      0.16883      0.12161      0.02445      0.20620      0.14163      
47900   0.26332    0.02274    0.03827    0.01948      0.17082      0.12011      0.02573      0.20595      0.14216      
48000   0.26633    0.02269    0.03823    0.01982      0.17364      0.11947      0.02535      0.20503      0.14185      
48100   0.26113    0.02264    0.03820    0.01957      0.16864      0.12087      0.02557      0.20445      0.14192      
48200   0.26308    0.02264    0.03819    0.01942      0.17080      0.12016      0.02553      0.20569      0.14237      
48300   0.26612    0.02264    0.03818    0.01980      0.17355      0.11952      0.02565      0.20577      0.14340      
48400   0.26081    0.02259    0.03816    0.01928      0.16859      0.12190      0.02493      0.20447      0.14256      
48500   0.26276    0.02257    0.03813    0.01929      0.17059      0.12184      0.02556      0.20394      0.14343      
48600   0.26585    0.02252    0.03809    0.01985      0.17336      0.12030      0.02584      0.20452      0.14256      
48700   0.26068    0.02247    0.03806    0.01935      0.16857      0.12230      0.02544      0.20444      0.14160      
48800   0.26270    0.02247    0.03804    0.01940      0.17076      0.12032      0.02552      0.20453      0.14129      
48900   0.26579    0.02246    0.03803    0.01989      0.17346      0.11943      0.02519      0.20525      0.14286      
49000   0.26044    0.02248    0.03804    0.01927      0.16850      0.12150      0.02479      0.20506      0.14083      
49100   0.26250    0.02242    0.03802    0.01933      0.17076      0.11979      0.02579      0.20424      0.14133      
49200   0.26549    0.02236    0.03799    0.01988      0.17335      0.11915      0.02595      0.20508      0.14134      
49300   0.26040    0.02234    0.03796    0.01926      0.16871      0.12136      0.02542      0.20489      0.14127      
49400   0.26232    0.02234    0.03795    0.01923      0.17078      0.12007      0.02643      0.20470      0.14171      
49500   0.26539    0.02231    0.03793    0.01987      0.17345      0.11835      0.02544      0.20423      0.14110      
49600   0.26023    0.02232    0.03792    0.01933      0.16855      0.12111      0.02559      0.20544      0.14108      
49700   0.26202    0.02226    0.03789    0.01928      0.17050      0.12090      0.02600      0.20388      0.14078      
49800   0.26527    0.02229    0.03789    0.01983      0.17326      0.12004      0.02513      0.20367      0.14116      
49900   0.26009    0.02225    0.03789    0.01925      0.16858      0.12137      0.02497      0.20364      0.14134      
50000   0.26193    0.02223    0.03788    0.01929      0.17042      0.12107      0.02534      0.20330      0.14135      
50100   0.26496    0.02224    0.03785    0.01991      0.17303      0.11923      0.02640      0.20353      0.14145      
50200   0.25986    0.02222    0.03784    0.01921      0.16844      0.12148      0.02455      0.20369      0.14128      
50300   0.26168    0.02217    0.03782    0.01950      0.17025      0.11941      0.02610      0.20396      0.14118      
50400   0.26484    0.02220    0.03783    0.01986      0.17313      0.11824      0.02601      0.20366      0.14012      
50500   0.25969    0.02217    0.03780    0.01919      0.16840      0.12130      0.02603      0.20344      0.14014      
50600   0.26158    0.02214    0.03778    0.01932      0.17032      0.12015      0.02609      0.20337      0.13898      
50700   0.26465    0.02211    0.03776    0.02001      0.17289      0.11886      0.02656      0.20325      0.13949      
50800   0.25950    0.02211    0.03777    0.01920      0.16831      0.12116      0.02609      0.20300      0.13915      
50900   0.26148    0.02208    0.03774    0.01934      0.17032      0.12005      0.02555      0.20347      0.13976      
51000   0.26455    0.02209    0.03773    0.01986      0.17297      0.11911      0.02602      0.20291      0.13949      
51100   0.25940    0.02206    0.03772    0.01923      0.16827      0.12128      0.02491      0.20254      0.13971      
51200   0.26142    0.02209    0.03771    0.01933      0.17027      0.12025      0.02575      0.20386      0.14025      
51300   0.26434    0.02204    0.03770    0.01964      0.17300      0.11966      0.02576      0.20280      0.13884      
51400   0.25918    0.02200    0.03767    0.01917      0.16820      0.12140      0.02576      0.20292      0.14029      
51500   0.26122    0.02201    0.03765    0.01938      0.17020      0.11976      0.02653      0.20384      0.14003      
51600   0.26429    0.02196    0.03762    0.01966      0.17313      0.11927      0.02644      0.20327      0.14177      
51700   0.25906    0.02194    0.03760    0.01904      0.16834      0.12149      0.02605      0.20432      0.14010      
51800   0.26108    0.02192    0.03759    0.01936      0.17020      0.12008      0.02628      0.20274      0.14137      
51900   0.26419    0.02190    0.03758    0.01971      0.17302      0.11981      0.02651      0.20301      0.14102      
52000   0.25895    0.02186    0.03756    0.01927      0.16813      0.12136      0.02537      0.20307      0.13993      
52100   0.26097    0.02181    0.03752    0.01932      0.17033      0.11996      0.02512      0.20314      0.14157      
52200   0.26401    0.02181    0.03749    0.01986      0.17297      0.11887      0.02606      0.20333      0.14054      
52300   0.25890    0.02180    0.03747    0.01917      0.16836      0.12096      0.02518      0.20407      0.13962      
52400   0.26086    0.02182    0.03748    0.01936      0.17020      0.12000      0.02530      0.20321      0.13979      
52500   0.26391    0.02179    0.03746    0.01987      0.17290      0.11894      0.02668      0.20283      0.14002      
52600   0.25873    0.02181    0.03745    0.01919      0.16817      0.12112      0.02616      0.20364      0.14073      
52700   0.26072    0.02176    0.03742    0.01940      0.17015      0.11980      0.02587      0.20285      0.14020      
52800   0.26384    0.02176    0.03741    0.01979      0.17300      0.11891      0.02574      0.20269      0.14138      
52900   0.25866    0.02175    0.03739    0.01909      0.16827      0.12164      0.02628      0.20306      0.14051      
53000   0.26053    0.02174    0.03738    0.01948      0.17000      0.11932      0.02628      0.20300      0.14184      
53100   0.26369    0.02173    0.03737    0.01968      0.17301      0.11902      0.02539      0.20274      0.14151      
53200   0.25858    0.02172    0.03735    0.01914      0.16828      0.12087      0.02633      0.20350      0.14069      
53300   0.26041    0.02167    0.03732    0.01912      0.17027      0.12011      0.02625      0.20360      0.14093      
53400   0.26347    0.02168    0.03731    0.01977      0.17284      0.11860      0.02537      0.20312      0.14102      
53500   0.25833    0.02167    0.03730    0.01898      0.16823      0.12135      0.02485      0.20271      0.14044      
53600   0.26023    0.02167    0.03728    0.01915      0.17018      0.11955      0.02573      0.20287      0.14099      
53700   0.26340    0.02165    0.03727    0.01983      0.17279      0.11861      0.02534      0.20260      0.13983      
53800   0.25821    0.02164    0.03727    0.01909      0.16809      0.12116      0.02591      0.20277      0.13857      
53900   0.26027    0.02165    0.03725    0.01921      0.17017      0.11998      0.02542      0.20301      0.14051      
54000   0.26322    0.02165    0.03724    0.01990      0.17258      0.11851      0.02544      0.20273      0.13828      
54100   0.25809    0.02165    0.03722    0.01926      0.16792      0.12041      0.02525      0.20341      0.13893      
54200   0.26021    0.02164    0.03721    0.01948      0.17000      0.11890      0.02603      0.20243      0.13659      
54300   0.26311    0.02164    0.03720    0.01996      0.17250      0.11808      0.02578      0.20242      0.13722      
54400   0.25800    0.02158    0.03719    0.01889      0.16830      0.12045      0.02473      0.20320      0.13855      
54500   0.25993    0.02158    0.03718    0.01927      0.17003      0.11873      0.02559      0.20306      0.13805      
54600   0.26292    0.02157    0.03716    0.01971      0.17272      0.11763      0.02526      0.20286      0.13773      
54700   0.25789    0.02163    0.03714    0.01905      0.16802      0.12047      0.02534      0.20301      0.13824      
54800   0.25993    0.02159    0.03713    0.01934      0.16998      0.11884      0.02583      0.20251      0.13721      
54900   0.26285    0.02160    0.03714    0.01971      0.17258      0.11811      0.02616      0.20280      0.13651      
55000   0.25785    0.02155    0.03711    0.01912      0.16801      0.12049      0.02590      0.20278      0.13583      
55100   0.25966    0.02152    0.03709    0.01929      0.16986      0.11896      0.02570      0.20191      0.13632      
55200   0.26270    0.02151    0.03708    0.01972      0.17253      0.11860      0.02581      0.20232      0.13667      
55300   0.25772    0.02151    0.03706    0.01910      0.16800      0.12056      0.02564      0.20247      0.13739      
55400   0.25947    0.02149    0.03705    0.01926      0.16972      0.11950      0.02557      0.20176      0.13798      
55500   0.26257    0.02147    0.03703    0.01966      0.17248      0.11934      0.02564      0.20188      0.13818      
55600   0.25770    0.02145    0.03703    0.01903      0.16809      0.12089      0.02502      0.20215      0.13936      
55700   0.25938    0.02145    0.03701    0.01939      0.16966      0.11872      0.02534      0.20203      0.13849      
55800   0.26243    0.02143    0.03699    0.01963      0.17249      0.11880      0.02546      0.20160      0.13956      
55900   0.25755    0.02144    0.03699    0.01912      0.16792      0.12073      0.02507      0.20236      0.14025      
56000   0.25922    0.02143    0.03698    0.01897      0.16983      0.12002      0.02498      0.20196      0.13979      
56100   0.26242    0.02144    0.03697    0.01970      0.17244      0.11885      0.02494      0.20177      0.13961      
56200   0.25751    0.02144    0.03697    0.01901      0.16803      0.12054      0.02518      0.20279      0.13965      
56300   0.25913    0.02139    0.03695    0.01920      0.16960      0.11988      0.02638      0.20221      0.14047      
56400   0.26223    0.02141    0.03694    0.01969      0.17230      0.11884      0.02540      0.20208      0.13968      
56500   0.25733    0.02138    0.03693    0.01910      0.16785      0.12076      0.02461      0.20226      0.14043      
56600   0.25905    0.02140    0.03692    0.01929      0.16956      0.11873      0.02512      0.20199      0.13899      
56700   0.26213    0.02138    0.03691    0.01978      0.17220      0.11861      0.02576      0.20174      0.13891      
56800   0.25720    0.02136    0.03689    0.01908      0.16780      0.12080      0.02508      0.20188      0.13832      
56900   0.25881    0.02136    0.03688    0.01927      0.16935      0.11943      0.02575      0.20197      0.14036      
57000   0.26219    0.02136    0.03687    0.01959      0.17248      0.11886      0.02497      0.20179      0.13893      
57100   0.25714    0.02133    0.03685    0.01914      0.16780      0.12014      0.02533      0.20255      0.13832      
57200   0.25875    0.02134    0.03685    0.01927      0.16931      0.11973      0.02563      0.20192      0.13853      
57300   0.26204    0.02134    0.03684    0.01970      0.17234      0.11837      0.02509      0.20187      0.13845      
57400   0.25709    0.02136    0.03683    0.01904      0.16781      0.12054      0.02477      0.20281      0.13862      
57500   0.25858    0.02132    0.03681    0.01896      0.16951      0.11981      0.02610      0.20199      0.13953      
57600   0.26194    0.02133    0.03680    0.01972      0.17228      0.11812      0.02560      0.20167      0.13963      
57700   0.25696    0.02130    0.03679    0.01916      0.16773      0.11973      0.02522      0.20187      0.13976      
57800   0.25858    0.02131    0.03679    0.01914      0.16943      0.11904      0.02521      0.20153      0.14009      
57900   0.26182    0.02131    0.03678    0.01969      0.17225      0.11785      0.02471      0.20088      0.13973      
58000   0.25700    0.02134    0.03679    0.01909      0.16775      0.12038      0.02513      0.20202      0.13880      
58100   0.25844    0.02132    0.03678    0.01895      0.16951      0.11892      0.02607      0.20177      0.13995      
58200   0.26169    0.02132    0.03676    0.01950      0.17232      0.11792      0.02588      0.20187      0.13925      
58300   0.25675    0.02130    0.03674    0.01895      0.16780      0.11972      0.02482      0.20236      0.13993      
58400   0.25834    0.02130    0.03673    0.01905      0.16943      0.11833      0.02598      0.20220      0.13960      
58500   0.26155    0.02124    0.03671    0.01953      0.17241      0.11661      0.02584      0.20172      0.13834      
58600   0.25661    0.02123    0.03671    0.01901      0.16768      0.11975      0.02531      0.20232      0.13874      
58700   0.25826    0.02123    0.03670    0.01907      0.16939      0.11855      0.02606      0.20246      0.14019      
58800   0.26146    0.02126    0.03670    0.01954      0.17225      0.11724      0.02626      0.20177      0.13939      
58900   0.25654    0.02124    0.03667    0.01904      0.16761      0.11969      0.02574      0.20238      0.13849      
59000   0.25820    0.02123    0.03667    0.01911      0.16933      0.11860      0.02612      0.20264      0.13926      
59100   0.26136    0.02121    0.03664    0.01964      0.17207      0.11796      0.02643      0.20232      0.13942      
59200   0.25659    0.02121    0.03663    0.01895      0.16773      0.12072      0.02587      0.20295      0.13832      
59300   0.25811    0.02123    0.03663    0.01903      0.16935      0.11868      0.02670      0.20165      0.13990      
59400   0.26142    0.02122    0.03662    0.01950      0.17227      0.11810      0.02699      0.20221      0.13814      
59500   0.25646    0.02118    0.03661    0.01901      0.16763      0.12031      0.02657      0.20159      0.13692      
59600   0.25798    0.02114    0.03659    0.01907      0.16928      0.11896      0.02693      0.20185      0.13813      
59700   0.26124    0.02111    0.03658    0.01956      0.17214      0.11851      0.02635      0.20203      0.14058      
59800   0.25638    0.02114    0.03658    0.01908      0.16752      0.12068      0.02655      0.20318      0.13861      
59900   0.25780    0.02114    0.03657    0.01900      0.16929      0.11801      0.02605      0.20181      0.13852      
60000   0.26124    0.02114    0.03656    0.01956      0.17219      0.11788      0.02723      0.20215      0.13866      
60100   0.25618    0.02114    0.03656    0.01899      0.16752      0.11962      0.02518      0.20199      0.13866      
60200   0.25782    0.02114    0.03655    0.01903      0.16931      0.11787      0.02681      0.20189      0.13881      
60300   0.26125    0.02115    0.03655    0.01946      0.17232      0.11770      0.02579      0.20144      0.13914      
60400   0.25620    0.02115    0.03653    0.01895      0.16767      0.11890      0.02542      0.20127      0.13748      
60500   0.25780    0.02114    0.03652    0.01913      0.16926      0.11762      0.02677      0.20105      0.13823      
60600   0.26107    0.02115    0.03651    0.01952      0.17224      0.11656      0.02626      0.20078      0.13780      
60700   0.25613    0.02114    0.03650    0.01904      0.16747      0.11991      0.02626      0.20159      0.13940      
60800   0.25772    0.02112    0.03650    0.01913      0.16921      0.11760      0.02652      0.20117      0.13797      
60900   0.26098    0.02113    0.03650    0.01960      0.17203      0.11729      0.02647      0.20092      0.13774      
61000   0.25604    0.02113    0.03650    0.01893      0.16751      0.11973      0.02653      0.20165      0.13662      
61100   0.25762    0.02110    0.03648    0.01902      0.16923      0.11791      0.02593      0.20093      0.13658      
61200   0.26072    0.02108    0.03648    0.01959      0.17194      0.11630      0.02551      0.20082      0.13652      
[...]
183800  0.25011    0.01969    0.03466    0.01843      0.16633      0.11001      0.02545      0.20134      0.13733      
183900  0.25423    0.01968    0.03465    0.01912      0.16991      0.10865      0.02511      0.20151      0.13815      
184000  0.24900    0.01968    0.03465    0.01856      0.16490      0.11212      0.02478      0.20169      0.13705      
184100  0.25011    0.01966    0.03465    0.01844      0.16641      0.10939      0.02544      0.20114      0.13717      
184200  0.25417    0.01967    0.03465    0.01914      0.16984      0.10864      0.02487      0.20107      0.13696      
184300  0.24895    0.01967    0.03465    0.01859      0.16482      0.11220      0.02464      0.20173      0.13748      
184400  0.25012    0.01966    0.03465    0.01846      0.16638      0.10971      0.02525      0.20140      0.13677      
184500  0.25418    0.01966    0.03465    0.01913      0.16986      0.10886      0.02469      0.20148      0.13714      
184600  0.24888    0.01967    0.03466    0.01857      0.16474      0.11241      0.02440      0.20177      0.13653      
184700  0.25008    0.01966    0.03466    0.01843      0.16636      0.10968      0.02583      0.20117      0.13641      
184800  0.25420    0.01965    0.03465    0.01906      0.16989      0.10947      0.02506      0.20135      0.13677      
184900  0.24892    0.01965    0.03465    0.01856      0.16480      0.11254      0.02460      0.20192      0.13646      
185000  0.25006    0.01966    0.03465    0.01838      0.16637      0.11000      0.02533      0.20112      0.13709      
185100  0.25416    0.01966    0.03466    0.01907      0.16986      0.10915      0.02520      0.20124      0.13709      
185200  0.24894    0.01966    0.03466    0.01861      0.16479      0.11222      0.02494      0.20150      0.13706      
185300  0.25001    0.01965    0.03465    0.01833      0.16637      0.11002      0.02542      0.20122      0.13732      
185400  0.25415    0.01965    0.03465    0.01904      0.16987      0.10939      0.02523      0.20142      0.13657      
185500  0.24896    0.01964    0.03465    0.01860      0.16480      0.11267      0.02526      0.20194      0.13801      
185600  0.25003    0.01966    0.03466    0.01827      0.16644      0.11008      0.02516      0.20137      0.13766      
185700  0.25420    0.01966    0.03465    0.01902      0.16993      0.10942      0.02476      0.20144      0.13785      
185800  0.24895    0.01964    0.03465    0.01861      0.16478      0.11263      0.02496      0.20159      0.13736      
185900  0.25001    0.01965    0.03465    0.01828      0.16642      0.11017      0.02521      0.20116      0.13850      
186000  0.25414    0.01965    0.03465    0.01910      0.16979      0.10952      0.02521      0.20098      0.13805      
186100  0.24889    0.01966    0.03465    0.01858      0.16475      0.11253      0.02510      0.20114      0.13771      
186200  0.25001    0.01967    0.03465    0.01842      0.16627      0.11003      0.02542      0.20073      0.13789      
186300  0.25409    0.01967    0.03465    0.01912      0.16973      0.10923      0.02521      0.20070      0.13738      
186400  0.24894    0.01966    0.03465    0.01855      0.16480      0.11274      0.02476      0.20140      0.13736      
186500  0.25005    0.01965    0.03465    0.01849      0.16627      0.10985      0.02507      0.20074      0.13708      
186600  0.25409    0.01965    0.03465    0.01916      0.16966      0.10966      0.02492      0.20053      0.13657      
186700  0.24893    0.01965    0.03465    0.01854      0.16483      0.11251      0.02440      0.20147      0.13679      
186800  0.24996    0.01965    0.03465    0.01847      0.16619      0.10998      0.02503      0.20052      0.13672      
186900  0.25417    0.01966    0.03465    0.01918      0.16973      0.10944      0.02527      0.20052      0.13776      
187000  0.24891    0.01965    0.03465    0.01864      0.16473      0.11232      0.02492      0.20167      0.13685      
187100  0.25000    0.01966    0.03466    0.01846      0.16624      0.10975      0.02529      0.20078      0.13787      
187200  0.25412    0.01964    0.03466    0.01910      0.16982      0.10907      0.02487      0.20088      0.13775      
187300  0.24894    0.01965    0.03466    0.01865      0.16475      0.11226      0.02516      0.20108      0.13788      
187400  0.24997    0.01965    0.03466    0.01844      0.16623      0.10992      0.02535      0.20090      0.13731      
187500  0.25411    0.01964    0.03466    0.01910      0.16979      0.10934      0.02518      0.20096      0.13783      
187600  0.24896    0.01964    0.03466    0.01864      0.16474      0.11281      0.02492      0.20116      0.13711      
187700  0.24993    0.01964    0.03465    0.01845      0.16620      0.10990      0.02537      0.20075      0.13759      
187800  0.25419    0.01964    0.03465    0.01920      0.16977      0.10932      0.02503      0.20070      0.13743      
187900  0.24891    0.01964    0.03466    0.01866      0.16474      0.11216      0.02489      0.20127      0.13694      
188000  0.25001    0.01964    0.03466    0.01852      0.16625      0.10950      0.02539      0.20104      0.13681      
188100  0.25407    0.01964    0.03465    0.01913      0.16973      0.10911      0.02541      0.20073      0.13601      
188200  0.24898    0.01964    0.03465    0.01865      0.16479      0.11253      0.02484      0.20153      0.13649      
188300  0.24991    0.01964    0.03465    0.01836      0.16628      0.10983      0.02508      0.20118      0.13576      
188400  0.25412    0.01964    0.03465    0.01918      0.16976      0.10893      0.02536      0.20124      0.13674      
188500  0.24898    0.01963    0.03465    0.01867      0.16477      0.11259      0.02496      0.20177      0.13669      
188600  0.24988    0.01964    0.03465    0.01833      0.16628      0.10978      0.02535      0.20124      0.13593      
188700  0.25408    0.01964    0.03464    0.01916      0.16975      0.10878      0.02510      0.20107      0.13605      
188800  0.24895    0.01963    0.03464    0.01873      0.16470      0.11246      0.02520      0.20152      0.13556      
188900  0.24996    0.01964    0.03464    0.01849      0.16624      0.10955      0.02555      0.20092      0.13575      
189000  0.25412    0.01963    0.03464    0.01918      0.16973      0.10944      0.02533      0.20132      0.13617      
189100  0.24896    0.01964    0.03464    0.01869      0.16472      0.11265      0.02508      0.20120      0.13672      
189200  0.24996    0.01965    0.03464    0.01836      0.16637      0.10946      0.02543      0.20118      0.13672      
189300  0.25411    0.01963    0.03463    0.01927      0.16968      0.10894      0.02536      0.20089      0.13618      
189400  0.24898    0.01963    0.03464    0.01870      0.16474      0.11276      0.02498      0.20149      0.13620      
189500  0.24995    0.01963    0.03464    0.01847      0.16626      0.10949      0.02546      0.20093      0.13605      
189600  0.25415    0.01963    0.03463    0.01913      0.16984      0.10920      0.02502      0.20077      0.13619      
189700  0.24901    0.01963    0.03463    0.01868      0.16479      0.11280      0.02527      0.20115      0.13620      
189800  0.24992    0.01962    0.03463    0.01840      0.16625      0.11009      0.02553      0.20039      0.13613      
189900  0.25411    0.01963    0.03463    0.01917      0.16977      0.10912      0.02538      0.20065      0.13658      
190000  0.24893    0.01962    0.03463    0.01861      0.16482      0.11259      0.02482      0.20158      0.13703      
190100  0.24994    0.01961    0.03463    0.01837      0.16634      0.10993      0.02535      0.20070      0.13683      
190200  0.25404    0.01961    0.03463    0.01911      0.16978      0.10904      0.02512      0.20082      0.13673      
190300  0.24899    0.01960    0.03463    0.01861      0.16491      0.11243      0.02499      0.20124      0.13716      
190400  0.24989    0.01960    0.03463    0.01834      0.16633      0.10995      0.02567      0.20055      0.13687      
190500  0.25406    0.01961    0.03463    0.01911      0.16982      0.10890      0.02528      0.20033      0.13733      
190600  0.24898    0.01961    0.03463    0.01867      0.16482      0.11249      0.02478      0.20106      0.13710      
190700  0.24986    0.01961    0.03463    0.01830      0.16634      0.10973      0.02506      0.20057      0.13716      
190800  0.25402    0.01962    0.03464    0.01911      0.16976      0.10896      0.02531      0.20076      0.13652      
190900  0.24900    0.01962    0.03463    0.01860      0.16489      0.11270      0.02492      0.20165      0.13619      
191000  0.24989    0.01962    0.03464    0.01832      0.16631      0.10998      0.02554      0.20076      0.13713      
191100  0.25406    0.01962    0.03463    0.01908      0.16976      0.10963      0.02504      0.20046      0.13617      
191200  0.24901    0.01962    0.03463    0.01874      0.16477      0.11245      0.02472      0.20089      0.13691      
191300  0.24988    0.01962    0.03463    0.01834      0.16631      0.10981      0.02523      0.20062      0.13643      
191400  0.25409    0.01962    0.03463    0.01911      0.16982      0.10912      0.02542      0.20096      0.13674      
191500  0.24900    0.01962    0.03463    0.01869      0.16479      0.11278      0.02495      0.20139      0.13707      
191600  0.24987    0.01962    0.03463    0.01838      0.16623      0.11004      0.02526      0.20035      0.13706      
191700  0.25403    0.01963    0.03463    0.01906      0.16975      0.10957      0.02556      0.20046      0.13645      
191800  0.24899    0.01963    0.03463    0.01860      0.16487      0.11249      0.02514      0.20161      0.13691      
191900  0.24994    0.01963    0.03463    0.01840      0.16627      0.11008      0.02586      0.20043      0.13751      
192000  0.25409    0.01964    0.03464    0.01902      0.16983      0.10962      0.02524      0.20039      0.13711      
192100  0.24899    0.01963    0.03464    0.01863      0.16481      0.11288      0.02469      0.20074      0.13739      
192200  0.24986    0.01964    0.03463    0.01831      0.16627      0.11002      0.02541      0.20072      0.13698      
192300  0.25418    0.01965    0.03464    0.01905      0.16989      0.10946      0.02515      0.20074      0.13706      
192400  0.24895    0.01965    0.03464    0.01871      0.16474      0.11208      0.02528      0.20156      0.13660      
192500  0.24987    0.01964    0.03463    0.01835      0.16627      0.10970      0.02524      0.20095      0.13638      
192600  0.25418    0.01965    0.03464    0.01909      0.16986      0.10946      0.02542      0.20088      0.13696      
192700  0.24892    0.01965    0.03464    0.01863      0.16477      0.11233      0.02494      0.20140      0.13687      
192800  0.24987    0.01964    0.03463    0.01828      0.16634      0.10971      0.02529      0.20111      0.13732      
192900  0.25415    0.01964    0.03463    0.01905      0.16992      0.10905      0.02542      0.20113      0.13668      
193000  0.24895    0.01964    0.03464    0.01859      0.16485      0.11235      0.02571      0.20139      0.13749      
193100  0.24978    0.01963    0.03463    0.01825      0.16627      0.10996      0.02568      0.20087      0.13693      
193200  0.25408    0.01963    0.03463    0.01912      0.16977      0.10934      0.02530      0.20074      0.13688      
193300  0.24895    0.01963    0.03463    0.01867      0.16477      0.11248      0.02473      0.20225      0.13691      
193400  0.24986    0.01964    0.03463    0.01835      0.16625      0.10982      0.02512      0.20092      0.13623      
193500  0.25405    0.01963    0.03463    0.01906      0.16981      0.10919      0.02506      0.20088      0.13649      
193600  0.24888    0.01964    0.03463    0.01858      0.16475      0.11290      0.02469      0.20164      0.13637      
193700  0.24981    0.01965    0.03463    0.01830      0.16623      0.11004      0.02541      0.20117      0.13652      
193800  0.25408    0.01964    0.03463    0.01905      0.16979      0.10975      0.02504      0.20091      0.13567      
193900  0.24894    0.01964    0.03463    0.01854      0.16480      0.11322      0.02492      0.20122      0.13535      
194000  0.24979    0.01964    0.03464    0.01828      0.16622      0.11010      0.02510      0.20087      0.13556      
194100  0.25408    0.01965    0.03464    0.01903      0.16980      0.10960      0.02553      0.20105      0.13623      
194200  0.24899    0.01965    0.03464    0.01851      0.16486      0.11326      0.02508      0.20197      0.13651      
194300  0.24985    0.01966    0.03464    0.01831      0.16622      0.11029      0.02514      0.20062      0.13617      
194400  0.25414    0.01965    0.03464    0.01902      0.16986      0.10983      0.02500      0.20095      0.13664      
194500  0.24892    0.01964    0.03463    0.01855      0.16480      0.11287      0.02475      0.20105      0.13695      
194600  0.24980    0.01965    0.03464    0.01828      0.16624      0.11000      0.02564      0.20080      0.13631      
194700  0.25403    0.01964    0.03463    0.01917      0.16964      0.10939      0.02543      0.20053      0.13535      
194800  0.24893    0.01965    0.03463    0.01863      0.16473      0.11286      0.02518      0.20131      0.13503      
194900  0.24980    0.01965    0.03463    0.01841      0.16616      0.10949      0.02543      0.20069      0.13574      
195000  0.25410    0.01964    0.03463    0.01916      0.16975      0.10922      0.02569      0.20106      0.13500      
195100  0.24887    0.01964    0.03462    0.01861      0.16474      0.11259      0.02469      0.20174      0.13585      
195200  0.24979    0.01963    0.03463    0.01838      0.16619      0.10974      0.02515      0.20104      0.13597      
195300  0.25410    0.01963    0.03463    0.01912      0.16979      0.10926      0.02482      0.20107      0.13590      
195400  0.24884    0.01963    0.03462    0.01860      0.16474      0.11248      0.02458      0.20175      0.13521      
195500  0.24975    0.01963    0.03462    0.01842      0.16612      0.10956      0.02548      0.20080      0.13647      
195600  0.25406    0.01962    0.03462    0.01915      0.16976      0.10920      0.02563      0.20094      0.13540      
195700  0.24883    0.01962    0.03462    0.01857      0.16481      0.11223      0.02501      0.20132      0.13580      
195800  0.24977    0.01962    0.03462    0.01839      0.16617      0.10973      0.02558      0.20066      0.13564      
195900  0.25401    0.01962    0.03462    0.01914      0.16970      0.10923      0.02552      0.20106      0.13568      
196000  0.24884    0.01962    0.03462    0.01857      0.16482      0.11213      0.02484      0.20167      0.13531      
196100  0.24979    0.01962    0.03462    0.01848      0.16613      0.10948      0.02609      0.20072      0.13552      
196200  0.25404    0.01963    0.03462    0.01914      0.16974      0.10910      0.02568      0.20080      0.13606      
196300  0.24882    0.01963    0.03462    0.01865      0.16470      0.11222      0.02551      0.20175      0.13645      
196400  0.24973    0.01964    0.03462    0.01838      0.16613      0.10961      0.02593      0.20098      0.13609      
196500  0.25398    0.01964    0.03462    0.01916      0.16964      0.10932      0.02528      0.20099      0.13564      
196600  0.24880    0.01963    0.03462    0.01862      0.16471      0.11223      0.02493      0.20179      0.13609      
196700  0.24977    0.01963    0.03462    0.01847      0.16608      0.10973      0.02535      0.20086      0.13575      
196800  0.25393    0.01963    0.03461    0.01916      0.16964      0.10889      0.02538      0.20071      0.13523      
196900  0.24883    0.01961    0.03461    0.01862      0.16477      0.11220      0.02510      0.20133      0.13579      
197000  0.24976    0.01961    0.03461    0.01829      0.16627      0.10967      0.02529      0.20065      0.13630      
197100  0.25404    0.01962    0.03461    0.01915      0.16973      0.10922      0.02520      0.20061      0.13597      
197200  0.24873    0.01962    0.03462    0.01852      0.16475      0.11228      0.02446      0.20173      0.13604      
197300  0.24976    0.01962    0.03461    0.01837      0.16618      0.10977      0.02588      0.20044      0.13611      
197400  0.25400    0.01963    0.03461    0.01917      0.16964      0.10939      0.02555      0.20040      0.13514      
197500  0.24882    0.01962    0.03461    0.01853      0.16478      0.11264      0.02462      0.20164      0.13607      
197600  0.24973    0.01963    0.03462    0.01829      0.16618      0.11007      0.02522      0.20083      0.13600      
197700  0.25401    0.01962    0.03461    0.01916      0.16972      0.10901      0.02526      0.20026      0.13580      
197800  0.24886    0.01962    0.03461    0.01864      0.16471      0.11275      0.02550      0.20091      0.13594      
197900  0.24968    0.01962    0.03461    0.01831      0.16614      0.11001      0.02587      0.20022      0.13586      
198000  0.25404    0.01962    0.03461    0.01914      0.16972      0.10953      0.02560      0.20043      0.13581      
198100  0.24879    0.01962    0.03461    0.01859      0.16472      0.11247      0.02488      0.20136      0.13594      
198200  0.24971    0.01962    0.03461    0.01829      0.16619      0.10997      0.02559      0.20055      0.13624      
198300  0.25407    0.01962    0.03461    0.01909      0.16980      0.10942      0.02556      0.20057      0.13579      
198400  0.24878    0.01962    0.03461    0.01863      0.16468      0.11235      0.02511      0.20145      0.13541      
198500  0.24967    0.01962    0.03461    0.01837      0.16608      0.10978      0.02603      0.20061      0.13553      
198600  0.25402    0.01962    0.03461    0.01909      0.16973      0.10973      0.02584      0.20045      0.13554      
198700  0.24875    0.01961    0.03461    0.01858      0.16471      0.11236      0.02540      0.20132      0.13574      
198800  0.24969    0.01961    0.03461    0.01837      0.16618      0.10933      0.02613      0.20033      0.13598      
198900  0.25409    0.01962    0.03461    0.01910      0.16979      0.10967      0.02554      0.20030      0.13561      
199000  0.24878    0.01962    0.03461    0.01853      0.16475      0.11264      0.02527      0.20127      0.13609      
199100  0.24971    0.01962    0.03461    0.01841      0.16608      0.10983      0.02611      0.20055      0.13656      
199200  0.25405    0.01962    0.03461    0.01917      0.16974      0.10909      0.02561      0.20052      0.13566      
199300  0.24878    0.01962    0.03461    0.01868      0.16466      0.11208      0.02567      0.20145      0.13632      
199400  0.24965    0.01964    0.03462    0.01835      0.16608      0.10965      0.02570      0.20096      0.13631      
199500  0.25406    0.01963    0.03461    0.01909      0.16978      0.10943      0.02554      0.20087      0.13634      
199600  0.24876    0.01963    0.03461    0.01867      0.16459      0.11267      0.02545      0.20209      0.13543      
199700  0.24971    0.01962    0.03460    0.01844      0.16608      0.10958      0.02562      0.20075      0.13563      
199800  0.25402    0.01962    0.03460    0.01909      0.16981      0.10901      0.02489      0.20096      0.13518      
199900  0.24876    0.01961    0.03460    0.01865      0.16467      0.11234      0.02518      0.20159      0.13553      
200000  0.24971    0.01961    0.03460    0.01841      0.16612      0.10975      0.02563      0.20082      0.13630      

---------------------------------------------------------------
Time used for training = 26898.048396 s.
---------------------------------------------------------------


---------------------------------------------------------------
Finished running nep.
---------------------------------------------------------------

